       N       E                     dE             d eps       ncg     rms          rms(c)
DAV:   1     0.485002775374E+04    0.48500E+04   -0.17231E+05  1872   0.907E+02
DAV:   2    -0.640711024463E+02   -0.49141E+04   -0.44706E+04  2520   0.206E+02
DAV:   3    -0.118840572882E+04   -0.11243E+04   -0.11198E+04  2124   0.109E+02
DAV:   4    -0.123336934122E+04   -0.44964E+02   -0.44727E+02  2052   0.286E+01
DAV:   5    -0.123452846076E+04   -0.11591E+01   -0.11566E+01  2340   0.425E+00    0.688E+01
RMM:   6    -0.121934380311E+04    0.15185E+02   -0.12542E+01  1658   0.363E+00    0.526E+01
RMM:   7    -0.119352778725E+04    0.25816E+02   -0.30138E+01  1596   0.611E+00    0.346E+01
RMM:   8    -0.117414248896E+04    0.19385E+02   -0.29282E+01  1591   0.610E+00    0.235E+01
RMM:   9    -0.117028891756E+04    0.38536E+01   -0.27522E+01  1584   0.585E+00    0.117E+01
RMM:  10    -0.117126717598E+04   -0.97826E+00   -0.38269E+00  1650   0.229E+00    0.721E+00
RMM:  11    -0.117031908212E+04    0.94809E+00   -0.17358E+00  1598   0.143E+00    0.364E+00
RMM:  12    -0.117023864061E+04    0.80442E-01   -0.32640E-01  1663   0.649E-01    0.924E-01
RMM:  13    -0.117022308244E+04    0.15558E-01   -0.74638E-02  1668   0.298E-01    0.408E-01
RMM:  14    -0.117022089697E+04    0.21855E-02   -0.10919E-02  1749   0.122E-01    0.208E-01
RMM:  15    -0.117022089068E+04    0.62912E-05   -0.24103E-03  1813   0.537E-02    0.131E-01
RMM:  16    -0.117022111795E+04   -0.22727E-03   -0.57309E-04  1394   0.281E-02    0.767E-02
RMM:  17    -0.117022119237E+04   -0.74424E-04   -0.15135E-04  1100   0.166E-02
   1 F= -.11773203E+04 E0= -.11773203E+04  d E =-.117732E+04  mag=     1.9975
       N       E                     dE             d eps       ncg     rms          rms(c)
DAV:   1    -0.117021595814E+04    0.51598E-02   -0.15246E+00  1656   0.188E+00    0.701E-01
RMM:   2    -0.117022222594E+04   -0.62678E-02   -0.69007E-02  1798   0.321E-01    0.625E-01
RMM:   3    -0.117022156151E+04    0.66443E-03   -0.52786E-03  1805   0.770E-02    0.488E-01
RMM:   4    -0.117022072686E+04    0.83465E-03   -0.61180E-03  1597   0.850E-02    0.165E-01
RMM:   5    -0.117022078800E+04   -0.61137E-04   -0.29692E-04  1265   0.228E-02
   2 F= -.11773200E+04 E0= -.11773200E+04  d E =0.284586E-03  mag=     1.9998
       N       E                     dE             d eps       ncg     rms          rms(c)
DAV:   1    -0.117022245693E+04   -0.17301E-02   -0.42670E-01  1692   0.992E-01    0.351E-01
RMM:   2    -0.117022405096E+04   -0.15940E-02   -0.18401E-02  1793   0.165E-01    0.304E-01
RMM:   3    -0.117022374969E+04    0.30127E-03   -0.15526E-03  1638   0.420E-02    0.223E-01
RMM:   4    -0.117022348081E+04    0.26888E-03   -0.18172E-03  1594   0.463E-02    0.858E-02
RMM:   5    -0.117022350999E+04   -0.29174E-04   -0.93939E-05  1113   0.126E-02
   3 F= -.11773226E+04 E0= -.11773226E+04  d E =-.237171E-02  mag=     2.0000
       N       E                     dE             d eps       ncg     rms          rms(c)
DAV:   1    -0.117022366636E+04   -0.18555E-03   -0.41981E-01  1800   0.104E+00    0.290E-01
RMM:   2    -0.117022471455E+04   -0.10482E-02   -0.14939E-02  1751   0.166E-01    0.244E-01
RMM:   3    -0.117022416140E+04    0.55315E-03   -0.11603E-03  1710   0.419E-02    0.187E-01
RMM:   4    -0.117022377285E+04    0.38855E-03   -0.26868E-03  1591   0.563E-02    0.695E-02
RMM:   5    -0.117022375448E+04    0.18373E-04   -0.73660E-05  1084   0.124E-02
   4 F= -.11773228E+04 E0= -.11773228E+04  d E =-.172960E-03  mag=     2.0000
       N       E                     dE             d eps       ncg     rms          rms(c)
DAV:   1    -0.117022443461E+04   -0.66176E-03   -0.10190E-01  1764   0.514E-01    0.135E-01
RMM:   2    -0.117022464826E+04   -0.21365E-03   -0.35729E-03  1748   0.795E-02    0.114E-01
RMM:   3    -0.117022447639E+04    0.17187E-03   -0.28264E-04  1141   0.213E-02    0.872E-02
RMM:   4    -0.117022437036E+04    0.10603E-03   -0.84370E-04  1577   0.316E-02    0.351E-02
RMM:   5    -0.117022436045E+04    0.99111E-05   -0.23479E-05  1055   0.747E-03
   5 F= -.11773235E+04 E0= -.11773235E+04  d E =-.814480E-03  mag=     2.0000
