       N       E                     dE             d eps       ncg     rms          rms(c)
DAV:   1     0.494381618636E+04    0.49438E+04   -0.17396E+05  1872   0.915E+02
DAV:   2    -0.511368918343E+02   -0.49950E+04   -0.45633E+04  2520   0.209E+02
DAV:   3    -0.119845935901E+04   -0.11473E+04   -0.11425E+04  2088   0.111E+02
DAV:   4    -0.124580442012E+04   -0.47345E+02   -0.47109E+02  2016   0.305E+01
DAV:   5    -0.124714992699E+04   -0.13455E+01   -0.13420E+01  2340   0.475E+00    0.643E+01
RMM:   6    -0.123192367336E+04    0.15226E+02   -0.89528E+00  1655   0.346E+00    0.529E+01
RMM:   7    -0.119222860008E+04    0.39695E+02   -0.10790E+02  1662   0.117E+01    0.343E+01
RMM:   8    -0.118732792625E+04    0.49007E+01   -0.41596E+00  1777   0.297E+00    0.272E+01
RMM:   9    -0.118113122284E+04    0.61967E+01   -0.13009E+01  1613   0.413E+00    0.183E+01
RMM:  10    -0.118125075336E+04   -0.11953E+00   -0.21280E+01  1584   0.533E+00    0.102E+01
RMM:  11    -0.117939701911E+04    0.18537E+01   -0.15030E+00  1681   0.181E+00    0.549E+00
RMM:  12    -0.117897079876E+04    0.42622E+00   -0.21715E+00  1649   0.159E+00    0.336E+00
RMM:  13    -0.117885235421E+04    0.11844E+00   -0.19872E-01  1710   0.599E-01    0.205E+00
RMM:  14    -0.117884399022E+04    0.83640E-02   -0.48405E-02  1643   0.265E-01    0.172E+00
RMM:  15    -0.117883425897E+04    0.97313E-02   -0.26490E-02  1717   0.187E-01    0.105E+00
RMM:  16    -0.117883275412E+04    0.15048E-02   -0.62039E-03  1777   0.955E-02    0.694E-01
RMM:  17    -0.117883406867E+04   -0.13145E-02   -0.40560E-03  1658   0.708E-02    0.450E-01
RMM:  18    -0.117883366781E+04    0.40086E-03   -0.10271E-03  1592   0.416E-02    0.264E-01
RMM:  19    -0.117883323232E+04    0.43549E-03   -0.13557E-03  1528   0.397E-02    0.146E-01
RMM:  20    -0.117883286032E+04    0.37200E-03   -0.24631E-04  1119   0.241E-02    0.735E-02
RMM:  21    -0.117883274641E+04    0.11391E-03   -0.22782E-04  1141   0.171E-02    0.313E-02
RMM:  22    -0.117883273116E+04    0.15253E-04   -0.47963E-05  1034   0.118E-02
   1 F= -.11858945E+04 E0= -.11858945E+04  d E =-.118589E+04  mag=     0.0016
       N       E                     dE             d eps       ncg     rms          rms(c)
DAV:   1    -0.117880239824E+04    0.30348E-01   -0.42238E+00  1764   0.255E+00    0.944E-01
RMM:   2    -0.117882222697E+04   -0.19829E-01   -0.26372E-01  1770   0.469E-01    0.107E+00
RMM:   3    -0.117882086819E+04    0.13588E-02   -0.13531E-02  1608   0.132E-01    0.121E+00
RMM:   4    -0.117881875741E+04    0.21108E-02   -0.63337E-03  1486   0.542E-02    0.121E+00
RMM:   5    -0.117881842331E+04    0.33410E-03   -0.29509E-03  1344   0.409E-02    0.123E+00
RMM:   6    -0.117881840998E+04    0.13334E-04   -0.12008E-03  1346   0.362E-02    0.132E+00
RMM:   7    -0.117881792811E+04    0.48187E-03   -0.68403E-04  1180   0.270E-02    0.146E+00
RMM:   8    -0.117881802918E+04   -0.10107E-03   -0.51836E-05  1047   0.118E-02    0.148E+00
RMM:   9    -0.117881836330E+04   -0.33412E-03   -0.79038E-05  1007   0.880E-03    0.154E+00
RMM:  10    -0.117881877221E+04   -0.40891E-03   -0.12865E-04  1036   0.990E-03    0.161E+00
RMM:  11    -0.117881892215E+04   -0.14994E-03   -0.24610E-05   887   0.647E-03    0.166E+00
RMM:  12    -0.117881888899E+04    0.33162E-04   -0.30919E-06   611   0.366E-03
   2 F= -.11858827E+04 E0= -.11858827E+04  d E =0.118638E-01  mag=     0.0000
       N       E                     dE             d eps       ncg     rms          rms(c)
DAV:   1    -0.117883083181E+04   -0.11910E-01   -0.18859E+00  1764   0.167E+00    0.141E+00
RMM:   2    -0.117883709460E+04   -0.62628E-02   -0.11621E-01  1725   0.307E-01    0.969E-01
RMM:   3    -0.117883506104E+04    0.20336E-02   -0.19249E-02  1557   0.115E-01    0.489E-01
RMM:   4    -0.117883514985E+04   -0.88809E-04   -0.32639E-03  1316   0.413E-02    0.345E-01
RMM:   5    -0.117883501438E+04    0.13547E-03   -0.37650E-04  1142   0.232E-02    0.151E-01
RMM:   6    -0.117883488315E+04    0.13122E-03   -0.87523E-04  1111   0.211E-02    0.456E-02
RMM:   7    -0.117883487565E+04    0.75044E-05   -0.11183E-04  1069   0.121E-02
   3 F= -.11858973E+04 E0= -.11858973E+04  d E =-.280735E-02  mag=     0.0000
       N       E                     dE             d eps       ncg     rms          rms(c)
DAV:   1    -0.117882823956E+04    0.66436E-02   -0.82605E-01  1728   0.989E-01    0.373E-01
RMM:   2    -0.117882909415E+04   -0.85459E-03   -0.26111E-02  1617   0.151E-01    0.311E-01
RMM:   3    -0.117882810041E+04    0.99374E-03   -0.18982E-03  1230   0.433E-02    0.271E-01
RMM:   4    -0.117882768139E+04    0.41902E-03   -0.79048E-04  1114   0.235E-02    0.207E-01
RMM:   5    -0.117882748298E+04    0.19841E-03   -0.50379E-04  1115   0.224E-02    0.110E-01
RMM:   6    -0.117882751639E+04   -0.33417E-04   -0.50811E-04  1099   0.219E-02
   4 F= -.11858899E+04 E0= -.11858899E+04  d E =0.745855E-02  mag=     0.0000
       N       E                     dE             d eps       ncg     rms          rms(c)
DAV:   1    -0.117883677865E+04   -0.92957E-02   -0.43068E-01  1800   0.709E-01    0.265E-01
RMM:   2    -0.117883712708E+04   -0.34843E-03   -0.13258E-02  1614   0.109E-01    0.222E-01
RMM:   3    -0.117883661077E+04    0.51631E-03   -0.90248E-04  1140   0.304E-02    0.198E-01
RMM:   4    -0.117883630678E+04    0.30399E-03   -0.44278E-04  1082   0.186E-02    0.145E-01
RMM:   5    -0.117883614368E+04    0.16310E-03   -0.45489E-04  1102   0.205E-02    0.649E-02
RMM:   6    -0.117883615366E+04   -0.99864E-05   -0.21447E-04  1066   0.156E-02
   5 F= -.11858986E+04 E0= -.11858986E+04  d E =-.125250E-02  mag=     0.0000
