       N       E                     dE             d eps       ncg     rms          rms(c)
DAV:   1     0.467176488464E+04    0.46718E+04   -0.18055E+05  1944   0.929E+02
DAV:   2    -0.104089647906E+03   -0.47759E+04   -0.43716E+04  2556   0.207E+02
DAV:   3    -0.120724778213E+04   -0.11032E+04   -0.10983E+04  2088   0.108E+02
DAV:   4    -0.125180992025E+04   -0.44562E+02   -0.44301E+02  1944   0.286E+01
DAV:   5    -0.125300918906E+04   -0.11993E+01   -0.11968E+01  2376   0.450E+00    0.694E+01
RMM:   6    -0.123371285325E+04    0.19296E+02   -0.20903E+01  1752   0.433E+00    0.532E+01
RMM:   7    -0.120796241775E+04    0.25750E+02   -0.27141E+01  1608   0.585E+00    0.368E+01
RMM:   8    -0.118593715572E+04    0.22025E+02   -0.35628E+01  1586   0.677E+00    0.242E+01
RMM:   9    -0.118240525775E+04    0.35319E+01   -0.30461E+01  1592   0.624E+00    0.116E+01
RMM:  10    -0.118331767450E+04   -0.91242E+00   -0.29521E+00  1686   0.213E+00    0.840E+00
RMM:  11    -0.118266911447E+04    0.64856E+00   -0.10176E+00  1637   0.105E+00    0.434E+00
RMM:  12    -0.118229460603E+04    0.37451E+00   -0.74318E-01  1613   0.929E-01    0.207E+00
RMM:  13    -0.118226600839E+04    0.28598E-01   -0.30346E-01  1625   0.614E-01    0.434E-01
RMM:  14    -0.118226362625E+04    0.23821E-02   -0.12693E-02  1715   0.172E-01    0.287E-01
RMM:  15    -0.118226265423E+04    0.97202E-03   -0.34087E-03  1671   0.666E-02    0.189E-01
RMM:  16    -0.118226323359E+04   -0.57936E-03   -0.17694E-03  1619   0.503E-02    0.136E-01
RMM:  17    -0.118226305206E+04    0.18153E-03   -0.61008E-04  1282   0.275E-02    0.784E-02
RMM:  18    -0.118226312915E+04   -0.77093E-04   -0.27127E-04  1161   0.215E-02
   1 F= -.11896640E+04 E0= -.11896631E+04  d E =-.118966E+04  mag=    -0.9823
       N       E                     dE             d eps       ncg     rms          rms(c)
DAV:   1    -0.118226110689E+04    0.19452E-02   -0.30829E-01  1692   0.945E-01    0.158E-01
RMM:   2    -0.118226270348E+04   -0.15966E-02   -0.18390E-02  1836   0.177E-01    0.146E-01
RMM:   3    -0.118226263887E+04    0.64611E-04   -0.10940E-03  1459   0.488E-02    0.187E-01
RMM:   4    -0.118226264183E+04   -0.29568E-05   -0.14668E-04  1079   0.155E-02
   2 F= -.11896638E+04 E0= -.11896629E+04  d E =0.182416E-03  mag=    -0.9810
       N       E                     dE             d eps       ncg     rms          rms(c)
DAV:   1    -0.118226297982E+04   -0.34095E-03   -0.77474E-02  1620   0.473E-01    0.144E-01
RMM:   2    -0.118226347294E+04   -0.49313E-03   -0.43194E-03  1825   0.879E-02    0.903E-02
RMM:   3    -0.118226349143E+04   -0.18484E-04   -0.24121E-04  1119   0.241E-02
   3 F= -.11896645E+04 E0= -.11896636E+04  d E =-.514354E-03  mag=    -0.9803
