       N       E                     dE             d eps       ncg     rms          rms(c)
DAV:   1     0.502391457162E+04    0.50239E+04   -0.17278E+05  1836   0.915E+02
DAV:   2    -0.168749670887E+02   -0.50408E+04   -0.45991E+04  2520   0.211E+02
DAV:   3    -0.118229772987E+04   -0.11654E+04   -0.11598E+04  2124   0.115E+02
DAV:   4    -0.124019590905E+04   -0.57898E+02   -0.57658E+02  2088   0.341E+01
DAV:   5    -0.124227141911E+04   -0.20755E+01   -0.20708E+01  2412   0.603E+00    0.618E+01
RMM:   6    -0.122904917072E+04    0.13222E+02   -0.73552E+00  1665   0.330E+00    0.504E+01
RMM:   7    -0.118696687910E+04    0.42082E+02   -0.69334E+01  1890   0.107E+01    0.292E+01
RMM:   8    -0.117614040921E+04    0.10826E+02   -0.35319E+01  1825   0.104E+01    0.142E+01
RMM:   9    -0.117749483614E+04   -0.13544E+01   -0.18151E+01  1796   0.791E+00    0.906E+00
RMM:  10    -0.117671441485E+04    0.78042E+00   -0.22364E+00  1889   0.363E+00    0.550E+00
RMM:  11    -0.117640049995E+04    0.31391E+00   -0.23309E+00  1758   0.189E+00    0.262E+00
RMM:  12    -0.117636199380E+04    0.38506E-01   -0.66699E-01  1757   0.209E+00    0.145E+00
RMM:  13    -0.117630733607E+04    0.54658E-01   -0.10316E-01  1896   0.500E-01    0.806E-01
RMM:  14    -0.117630234931E+04    0.49868E-02   -0.44828E-02  1748   0.343E-01    0.422E-01
RMM:  15    -0.117630230825E+04    0.41063E-04   -0.11305E-02  1761   0.271E-01    0.369E-01
RMM:  16    -0.117630203484E+04    0.27341E-03   -0.21953E-03  1717   0.901E-02    0.258E-01
RMM:  17    -0.117630226735E+04   -0.23251E-03   -0.29986E-03  1775   0.916E-02    0.122E-01
RMM:  18    -0.117630227359E+04   -0.62343E-05   -0.10864E-03  1575   0.740E-02    0.691E-02
RMM:  19    -0.117630220285E+04    0.70731E-04   -0.18277E-04  1104   0.417E-02
   1 F= -.11833532E+04 E0= -.11833532E+04  d E =-.118335E+04  mag=    -0.0032
       N       E                     dE             d eps       ncg     rms          rms(c)
DAV:   1    -0.117630133703E+04    0.93656E-03   -0.28908E-01  1656   0.833E-01    0.124E-01
RMM:   2    -0.117630204386E+04   -0.70683E-03   -0.87956E-03  1881   0.141E-01    0.124E-01
RMM:   3    -0.117630202960E+04    0.14253E-04   -0.74802E-04  1386   0.849E-02
   2 F= -.11833530E+04 E0= -.11833530E+04  d E =0.173003E-03  mag=    -0.0005
       N       E                     dE             d eps       ncg     rms          rms(c)
DAV:   1    -0.117630231601E+04   -0.27215E-03   -0.85504E-02  1764   0.454E-01    0.481E-02
RMM:   2    -0.117630257732E+04   -0.26131E-03   -0.22785E-03  1641   0.748E-02    0.318E-02
RMM:   3    -0.117630261461E+04   -0.37287E-04   -0.32163E-04  1174   0.755E-02
   3 F= -.11833536E+04 E0= -.11833536E+04  d E =-.410882E-03  mag=    -0.0001
