       N       E                     dE             d eps       ncg     rms          rms(c)
DAV:   1     0.497005386950E+04    0.49701E+04   -0.17801E+05  1872   0.926E+02
DAV:   2    -0.379355286310E+02   -0.50080E+04   -0.45932E+04  2520   0.214E+02
DAV:   3    -0.120033480224E+04   -0.11624E+04   -0.11549E+04  2088   0.113E+02
DAV:   4    -0.124911575004E+04   -0.48781E+02   -0.48521E+02  1980   0.301E+01
DAV:   5    -0.125039124410E+04   -0.12755E+01   -0.12724E+01  2376   0.470E+00    0.101E+02
RMM:   6    -0.125209578190E+04   -0.17045E+01   -0.21374E+02  1927   0.192E+01    0.101E+02
RMM:   7    -0.122904624720E+04    0.23050E+02   -0.10487E+01  1594   0.512E+00    0.743E+01
RMM:   8    -0.119544009585E+04    0.33606E+02   -0.34852E+01  1590   0.769E+00    0.354E+01
RMM:   9    -0.118507024644E+04    0.10370E+02   -0.10156E+01  1584   0.430E+00    0.293E+01
RMM:  10    -0.117041683367E+04    0.14653E+02   -0.30941E+01  1584   0.661E+00    0.182E+01
RMM:  11    -0.117002601978E+04    0.39081E+00   -0.12212E+01  1590   0.431E+00    0.104E+01
RMM:  12    -0.117076519052E+04   -0.73917E+00   -0.14785E+00  1609   0.183E+00    0.806E+00
RMM:  13    -0.117036378920E+04    0.40140E+00   -0.31017E+00  1614   0.214E+00    0.942E+00
RMM:  14    -0.116978638584E+04    0.57740E+00   -0.11270E+00  1616   0.148E+00    0.161E+00
RMM:  15    -0.116975395863E+04    0.32427E-01   -0.10886E-01  1619   0.425E-01    0.122E+00
RMM:  16    -0.116974265364E+04    0.11305E-01   -0.51605E-02  1641   0.275E-01    0.555E-01
RMM:  17    -0.116974025795E+04    0.23957E-02   -0.58608E-03  1620   0.105E-01    0.346E-01
RMM:  18    -0.116974058873E+04   -0.33078E-03   -0.33315E-03  1591   0.622E-02    0.302E-01
RMM:  19    -0.116973999444E+04    0.59429E-03   -0.17729E-03  1435   0.554E-02    0.136E-01
RMM:  20    -0.116974004119E+04   -0.46749E-04   -0.58405E-04  1301   0.263E-02
   1 F= -.11768426E+04 E0= -.11768426E+04  d E =-.117684E+04  mag=     0.0000
       N       E                     dE             d eps       ncg     rms          rms(c)
DAV:   1    -0.116973518095E+04    0.48135E-02   -0.39205E-01  1800   0.192E+00    0.234E-01
RMM:   2    -0.116974080998E+04   -0.56290E-02   -0.59441E-02  1765   0.298E-01    0.170E-01
RMM:   3    -0.116973956866E+04    0.12413E-02   -0.21013E-03  1579   0.692E-02    0.155E-01
RMM:   4    -0.116973923480E+04    0.33386E-03   -0.79003E-04  1502   0.321E-02    0.100E-01
RMM:   5    -0.116973916009E+04    0.74706E-04   -0.64602E-04  1529   0.308E-02
   2 F= -.11768420E+04 E0= -.11768420E+04  d E =0.642801E-03  mag=    -0.0000
       N       E                     dE             d eps       ncg     rms          rms(c)
DAV:   1    -0.116973939888E+04   -0.16408E-03   -0.13727E-01  1800   0.112E+00    0.135E-01
RMM:   2    -0.116974121490E+04   -0.18160E-02   -0.19656E-02  1752   0.173E-01    0.909E-02
RMM:   3    -0.116974075072E+04    0.46418E-03   -0.59916E-04  1215   0.370E-02    0.812E-02
RMM:   4    -0.116974060551E+04    0.14521E-03   -0.34003E-04  1150   0.232E-02    0.503E-02
RMM:   5    -0.116974057084E+04    0.34672E-04   -0.22416E-04  1061   0.201E-02
   3 F= -.11768433E+04 E0= -.11768433E+04  d E =-.627444E-03  mag=     0.0000
