       N       E                     dE             d eps       ncg     rms          rms(c)
DAV:   1     0.491098074004E+04    0.49110E+04   -0.17392E+05  1872   0.913E+02
DAV:   2    -0.590024248567E+02   -0.49700E+04   -0.45410E+04  2556   0.207E+02
DAV:   3    -0.118916591907E+04   -0.11302E+04   -0.11243E+04  2160   0.109E+02
DAV:   4    -0.123350089635E+04   -0.44335E+02   -0.44119E+02  2052   0.284E+01
DAV:   5    -0.123462724473E+04   -0.11263E+01   -0.11231E+01  2232   0.421E+00    0.680E+01
RMM:   6    -0.122246660686E+04    0.12161E+02   -0.27473E+01  1591   0.503E+00    0.526E+01
RMM:   7    -0.120493577055E+04    0.17531E+02   -0.86778E+00  1584   0.343E+00    0.433E+01
RMM:   8    -0.118566455460E+04    0.19271E+02   -0.52268E+01  1584   0.826E+00    0.368E+01
RMM:   9    -0.117244605292E+04    0.13219E+02   -0.34973E+01  1584   0.600E+00    0.224E+01
RMM:  10    -0.117487375751E+04   -0.24277E+01   -0.82205E+00  1584   0.325E+00    0.150E+01
RMM:  11    -0.117056974537E+04    0.43040E+01   -0.62118E+00  1585   0.265E+00    0.857E+00
RMM:  12    -0.117015193650E+04    0.41781E+00   -0.22261E-01  1597   0.574E-01    0.759E+00
RMM:  13    -0.116896475295E+04    0.11872E+01   -0.23878E+00  1584   0.168E+00    0.340E+00
RMM:  14    -0.116884863552E+04    0.11612E+00   -0.11806E-01  1592   0.358E-01    0.228E+00
RMM:  15    -0.116884222633E+04    0.64092E-02   -0.13585E-02  1633   0.124E-01    0.223E+00
RMM:  16    -0.116882032568E+04    0.21901E-01   -0.19406E-02  1584   0.159E-01    0.217E+00
RMM:  17    -0.116881616928E+04    0.41564E-02   -0.61772E-03  1584   0.927E-02    0.201E+00
RMM:  18    -0.116878971953E+04    0.26450E-01   -0.20897E-02  1584   0.145E-01    0.192E+00
RMM:  19    -0.116878740530E+04    0.23142E-02   -0.10063E-03  1374   0.413E-02    0.187E+00
RMM:  20    -0.116879772921E+04   -0.10324E-01   -0.71283E-03  1573   0.821E-02    0.296E+00
RMM:  21    -0.116877871757E+04    0.19012E-01   -0.42438E-03  1570   0.684E-02    0.244E+00
RMM:  22    -0.116876681188E+04    0.11906E-01   -0.46157E-03  1592   0.682E-02    0.174E+00
RMM:  23    -0.116877504594E+04   -0.82341E-02   -0.17261E-03  1508   0.461E-02    0.232E+00
RMM:  24    -0.116875532582E+04    0.19720E-01   -0.14772E-02  1594   0.118E-01    0.566E-01
RMM:  25    -0.116876004221E+04   -0.47164E-02   -0.25930E-03  1594   0.518E-02    0.489E-01
RMM:  26    -0.116875947208E+04    0.57013E-03   -0.22956E-04  1090   0.170E-02    0.380E-01
RMM:  27    -0.116876052774E+04   -0.10557E-02   -0.80816E-04  1246   0.290E-02    0.569E-01
RMM:  28    -0.116875974298E+04    0.78476E-03   -0.19634E-04  1077   0.187E-02    0.358E-01
RMM:  29    -0.116876027737E+04   -0.53439E-03   -0.83511E-05  1036   0.133E-02    0.428E-01
RMM:  30    -0.116876039611E+04   -0.11874E-03   -0.81027E-05  1035   0.118E-02    0.504E-01
RMM:  31    -0.116876005303E+04    0.34308E-03   -0.73834E-05  1031   0.116E-02    0.424E-01
RMM:  32    -0.116876012744E+04   -0.74405E-04   -0.20241E-05   978   0.716E-03
   1 F= -.11758682E+04 E0= -.11758478E+04  d E =-.117587E+04  mag=    -0.0905
       N       E                     dE             d eps       ncg     rms          rms(c)
DAV:   1    -0.116876129698E+04   -0.12440E-02   -0.13608E+00  1620   0.178E+00    0.100E+00
RMM:   2    -0.116877470075E+04   -0.13404E-01   -0.50751E-02  1584   0.277E-01    0.146E+00
RMM:   3    -0.116876627856E+04    0.84222E-02   -0.60435E-03  1579   0.807E-02    0.140E+00
RMM:   4    -0.116875977904E+04    0.64995E-02   -0.11780E-03  1296   0.403E-02    0.628E-01
RMM:   5    -0.116876135897E+04   -0.15799E-02   -0.15093E-04  1065   0.182E-02    0.602E-01
RMM:   6    -0.116875979531E+04    0.15637E-02   -0.62504E-03  1584   0.868E-02    0.421E-01
RMM:   7    -0.116875963369E+04    0.16162E-03   -0.23743E-03  1593   0.547E-02    0.205E-01
RMM:   8    -0.116875991185E+04   -0.27816E-03   -0.55723E-04  1322   0.279E-02    0.213E-01
RMM:   9    -0.116875977906E+04    0.13279E-03   -0.43788E-04  1236   0.237E-02    0.832E-02
RMM:  10    -0.116875996926E+04   -0.19021E-03   -0.99619E-05  1033   0.140E-02    0.909E-02
RMM:  11    -0.116875993843E+04    0.30830E-04   -0.26999E-04  1135   0.203E-02
   2 F= -.11758689E+04 E0= -.11758515E+04  d E =-.720892E-03  mag=    -0.0457
       N       E                     dE             d eps       ncg     rms          rms(c)
DAV:   1    -0.116876286371E+04   -0.28944E-02   -0.24204E-01  1692   0.746E-01    0.402E-01
RMM:   2    -0.116876515182E+04   -0.22881E-02   -0.82607E-03  1584   0.113E-01    0.619E-01
RMM:   3    -0.116876267081E+04    0.24810E-02   -0.10963E-03  1266   0.343E-02    0.218E-01
RMM:   4    -0.116876279162E+04   -0.12081E-03   -0.82790E-05  1034   0.127E-02    0.224E-01
RMM:   5    -0.116876259176E+04    0.19986E-03   -0.46841E-04  1334   0.244E-02    0.222E-01
RMM:   6    -0.116876254650E+04    0.45256E-04   -0.24211E-05   995   0.790E-03
   3 F= -.11758711E+04 E0= -.11758542E+04  d E =-.295006E-02  mag=    -0.0699
       N       E                     dE             d eps       ncg     rms          rms(c)
DAV:   1    -0.116875931768E+04    0.32741E-02   -0.62433E-01  1800   0.129E+00    0.582E-01
RMM:   2    -0.116876499362E+04   -0.56759E-02   -0.18971E-02  1592   0.205E-01    0.103E+00
RMM:   3    -0.116876123186E+04    0.37618E-02   -0.17257E-03  1481   0.475E-02    0.829E-01
RMM:   4    -0.116875846151E+04    0.27704E-02   -0.65205E-04  1206   0.302E-02    0.249E-01
RMM:   5    -0.116875938162E+04   -0.92011E-03   -0.10638E-04  1046   0.162E-02    0.238E-01
RMM:   6    -0.116875880856E+04    0.57306E-03   -0.30363E-03  1584   0.629E-02    0.109E-01
RMM:   7    -0.116875880164E+04    0.69277E-05   -0.27950E-04  1153   0.212E-02
   4 F= -.11758668E+04 E0= -.11758498E+04  d E =0.433702E-02  mag=    -0.0689
       N       E                     dE             d eps       ncg     rms          rms(c)
DAV:   1    -0.116876363022E+04   -0.48217E-02   -0.32679E-01  1800   0.935E-01    0.379E-01
RMM:   2    -0.116876589722E+04   -0.22670E-02   -0.96379E-03  1592   0.146E-01    0.635E-01
RMM:   3    -0.116876383262E+04    0.20646E-02   -0.10587E-03  1365   0.357E-02    0.359E-01
RMM:   4    -0.116876341097E+04    0.42165E-03   -0.16869E-04  1071   0.179E-02    0.167E-01
RMM:   5    -0.116876356143E+04   -0.15046E-03   -0.32723E-05  1012   0.941E-03    0.147E-01
RMM:   6    -0.116876321937E+04    0.34206E-03   -0.21481E-03  1580   0.508E-02    0.565E-02
RMM:   7    -0.116876321747E+04    0.18984E-05   -0.51972E-05   997   0.107E-02
   5 F= -.11758716E+04 E0= -.11758548E+04  d E =-.504950E-03  mag=    -0.0612
