       N       E                     dE             d eps       ncg     rms          rms(c)
DAV:   1     0.503855273113E+04    0.50386E+04   -0.16992E+05  1720   0.988E+02
DAV:   2     0.942781778021E+02   -0.49443E+04   -0.44910E+04  2256   0.227E+02
DAV:   3    -0.117575010894E+04   -0.12700E+04   -0.12486E+04  1896   0.125E+02
DAV:   4    -0.123959424673E+04   -0.63844E+02   -0.63080E+02  1872   0.370E+01
DAV:   5    -0.124160307032E+04   -0.20088E+01   -0.19943E+01  2144   0.720E+00    0.756E+01
RMM:   6    -0.124156935087E+04    0.33719E-01   -0.10424E+02  1622   0.144E+01    0.850E+01
RMM:   7    -0.122063847019E+04    0.20931E+02   -0.15597E+01  1455   0.633E+00    0.644E+01
RMM:   8    -0.120407099260E+04    0.16567E+02   -0.15731E+01  1484   0.508E+00    0.551E+01
RMM:   9    -0.117182835684E+04    0.32243E+02   -0.54234E+01  1639   0.104E+01    0.257E+01
RMM:  10    -0.117167629175E+04    0.15207E+00   -0.32580E+00  1542   0.346E+00    0.226E+01
RMM:  11    -0.116874566686E+04    0.29306E+01   -0.22647E+01  1699   0.609E+00    0.101E+01
RMM:  12    -0.116881943640E+04   -0.73770E-01   -0.16124E+00  1637   0.214E+00    0.737E+00
RMM:  13    -0.116847953952E+04    0.33990E+00   -0.80929E-01  1488   0.137E+00    0.490E+00
RMM:  14    -0.116841522056E+04    0.64319E-01   -0.38755E-01  1460   0.851E-01    0.361E+00
RMM:  15    -0.116837487941E+04    0.40341E-01   -0.14388E-01  1538   0.569E-01    0.282E+00
RMM:  16    -0.116828393674E+04    0.90943E-01   -0.42565E-02  1549   0.311E-01    0.194E+00
RMM:  17    -0.116827330528E+04    0.10631E-01   -0.98985E-03  1260   0.138E-01    0.172E+00
RMM:  18    -0.116824165030E+04    0.31655E-01   -0.19251E-02  1386   0.158E-01    0.120E+00
RMM:  19    -0.116822498800E+04    0.16662E-01   -0.10606E-02  1248   0.125E-01    0.772E-01
RMM:  20    -0.116821901507E+04    0.59729E-02   -0.34126E-03  1030   0.823E-02    0.514E-01
RMM:  21    -0.116821467595E+04    0.43391E-02   -0.62228E-03  1130   0.847E-02    0.216E-01
RMM:  22    -0.116821454956E+04    0.12639E-03   -0.87697E-04   940   0.553E-02
   1 F= -.11752468E+04 E0= -.11752468E+04  d E =-.117525E+04  mag=     0.0005
