       N       E                     dE             d eps       ncg     rms          rms(c)
DAV:   1     0.453467224506E+04    0.45347E+04   -0.17681E+05  1944   0.909E+02
DAV:   2    -0.142310416671E+03   -0.46770E+04   -0.42663E+04  2556   0.202E+02
DAV:   3    -0.119148223062E+04   -0.10492E+04   -0.10444E+04  2160   0.104E+02
DAV:   4    -0.123150635999E+04   -0.40024E+02   -0.39830E+02  2088   0.267E+01
DAV:   5    -0.123253201839E+04   -0.10257E+01   -0.10238E+01  2376   0.398E+00    0.650E+01
RMM:   6    -0.121866108885E+04    0.13871E+02   -0.23642E+01  1589   0.481E+00    0.503E+01
RMM:   7    -0.120154158280E+04    0.17120E+02   -0.98505E+00  1584   0.361E+00    0.401E+01
RMM:   8    -0.117358167677E+04    0.27960E+02   -0.42538E+01  1584   0.745E+00    0.258E+01
RMM:   9    -0.116697024778E+04    0.66114E+01   -0.15347E+01  1584   0.450E+00    0.181E+01
RMM:  10    -0.116750315627E+04   -0.53291E+00   -0.11257E+01  1584   0.383E+00    0.914E+00
RMM:  11    -0.116763460607E+04   -0.13145E+00   -0.12187E+00  1608   0.133E+00    0.687E+00
RMM:  12    -0.116704114029E+04    0.59347E+00   -0.12480E+00  1584   0.119E+00    0.372E+00
RMM:  13    -0.116684764483E+04    0.19350E+00   -0.55842E-01  1584   0.850E-01    0.117E+00
RMM:  14    -0.116682987825E+04    0.17767E-01   -0.37545E-02  1608   0.213E-01    0.892E-01
RMM:  15    -0.116683063160E+04   -0.75335E-03   -0.27110E-02  1600   0.173E-01    0.303E-01
RMM:  16    -0.116683129864E+04   -0.66704E-03   -0.63158E-03  1584   0.931E-02    0.238E-01
RMM:  17    -0.116683083177E+04    0.46687E-03   -0.18759E-03  1579   0.496E-02    0.121E-01
RMM:  18    -0.116683085393E+04   -0.22153E-04   -0.46935E-04  1260   0.245E-02
   1 F= -.11739529E+04 E0= -.11739529E+04  d E =-.117395E+04  mag=    -0.9983
       N       E                     dE             d eps       ncg     rms          rms(c)
DAV:   1    -0.116682116764E+04    0.96641E-02   -0.19507E+00  1692   0.251E+00    0.479E-01
RMM:   2    -0.116683490133E+04   -0.13734E-01   -0.14432E-01  1584   0.446E-01    0.500E-01
RMM:   3    -0.116683193458E+04    0.29668E-02   -0.46801E-03  1757   0.800E-02    0.487E-01
RMM:   4    -0.116683099504E+04    0.93954E-03   -0.14594E-03  1569   0.414E-02    0.364E-01
RMM:   5    -0.116683056343E+04    0.43161E-03   -0.41903E-03  1584   0.720E-02    0.139E-01
RMM:   6    -0.116683049738E+04    0.66043E-04   -0.21856E-04  1106   0.194E-02
   2 F= -.11739524E+04 E0= -.11739524E+04  d E =0.519410E-03  mag=    -1.0000
       N       E                     dE             d eps       ncg     rms          rms(c)
DAV:   1    -0.116683177092E+04   -0.12075E-02   -0.49606E-01  1800   0.127E+00    0.224E-01
RMM:   2    -0.116683509752E+04   -0.33266E-02   -0.35840E-02  1584   0.219E-01    0.241E-01
RMM:   3    -0.116683432650E+04    0.77102E-03   -0.10989E-03  1303   0.382E-02    0.240E-01
RMM:   4    -0.116683418644E+04    0.14006E-03   -0.16961E-04  1060   0.153E-02    0.217E-01
RMM:   5    -0.116683381932E+04    0.36712E-03   -0.16653E-03  1575   0.460E-02    0.833E-02
RMM:   6    -0.116683384091E+04   -0.21586E-04   -0.15682E-04  1051   0.159E-02
   3 F= -.11739558E+04 E0= -.11739558E+04  d E =-.289669E-02  mag=    -1.0000
       N       E                     dE             d eps       ncg     rms          rms(c)
DAV:   1    -0.116683054967E+04    0.32696E-02   -0.92971E-01  1764   0.179E+00    0.306E-01
RMM:   2    -0.116683644309E+04   -0.58934E-02   -0.66025E-02  1586   0.304E-01    0.294E-01
RMM:   3    -0.116683476339E+04    0.16797E-02   -0.22084E-03  1495   0.565E-02    0.272E-01
RMM:   4    -0.116683368479E+04    0.10786E-02   -0.36737E-03  1584   0.660E-02    0.107E-01
RMM:   5    -0.116683368000E+04    0.47950E-05   -0.40668E-04  1236   0.243E-02
   4 F= -.11739553E+04 E0= -.11739553E+04  d E =0.507949E-03  mag=    -1.0000
       N       E                     dE             d eps       ncg     rms          rms(c)
DAV:   1    -0.116683443892E+04   -0.75412E-03   -0.27206E-01  1836   0.968E-01    0.159E-01
RMM:   2    -0.116683603030E+04   -0.15914E-02   -0.18497E-02  1586   0.162E-01    0.147E-01
RMM:   3    -0.116683548795E+04    0.54235E-03   -0.59919E-04  1194   0.301E-02    0.131E-01
RMM:   4    -0.116683512853E+04    0.35943E-03   -0.13911E-03  1576   0.405E-02    0.499E-02
RMM:   5    -0.116683512449E+04    0.40323E-05   -0.70713E-05  1025   0.114E-02
   5 F= -.11739569E+04 E0= -.11739569E+04  d E =-.112292E-02  mag=    -1.0000
       N       E                     dE             d eps       ncg     rms          rms(c)
DAV:   1    -0.116683523857E+04   -0.11005E-03   -0.38813E-01  1836   0.114E+00    0.160E-01
RMM:   2    -0.116683730510E+04   -0.20665E-02   -0.23373E-02  1590   0.188E-01    0.128E-01
RMM:   3    -0.116683668408E+04    0.62102E-03   -0.82726E-04  1267   0.358E-02    0.110E-01
RMM:   4    -0.116683650639E+04    0.17768E-03   -0.98940E-04  1515   0.332E-02    0.497E-02
RMM:   5    -0.116683649781E+04    0.85851E-05   -0.52471E-05  1029   0.100E-02
   6 F= -.11739582E+04 E0= -.11739582E+04  d E =-.129557E-02  mag=    -1.0000
       N       E                     dE             d eps       ncg     rms          rms(c)
DAV:   1    -0.116683651000E+04   -0.36058E-05   -0.11056E-03  1800   0.599E-02    0.193E-02
RMM:   2    -0.116683651389E+04   -0.38908E-05   -0.53835E-05   997   0.104E-02
   7 F= -.11739583E+04 E0= -.11739583E+04  d E =-.131556E-02  mag=    -1.0000
       N       E                     dE             d eps       ncg     rms          rms(c)
DAV:   1    -0.116683726098E+04   -0.75098E-03   -0.13721E-01  1800   0.660E-01    0.896E-02
RMM:   2    -0.116683788151E+04   -0.62053E-03   -0.70869E-03  1592   0.107E-01    0.774E-02
RMM:   3    -0.116683770657E+04    0.17494E-03   -0.23704E-04  1099   0.209E-02    0.706E-02
RMM:   4    -0.116683769766E+04    0.89144E-05   -0.33892E-04  1229   0.211E-02
   8 F= -.11739595E+04 E0= -.11739595E+04  d E =-.120643E-02  mag=    -1.0000
       N       E                     dE             d eps       ncg     rms          rms(c)
DAV:   1    -0.116683753954E+04    0.16704E-03   -0.18119E-01  1800   0.759E-01    0.110E-01
RMM:   2    -0.116683836696E+04   -0.82742E-03   -0.93750E-03  1592   0.124E-01    0.966E-02
RMM:   3    -0.116683815077E+04    0.21618E-03   -0.33180E-04  1170   0.244E-02    0.884E-02
RMM:   4    -0.116683815704E+04   -0.62613E-05   -0.40890E-04  1309   0.236E-02
   9 F= -.11739600E+04 E0= -.11739600E+04  d E =-.169913E-02  mag=    -1.0000
       N       E                     dE             d eps       ncg     rms          rms(c)
DAV:   1    -0.116683920041E+04   -0.10496E-02   -0.86149E-02  1728   0.488E-01    0.744E-02
RMM:   2    -0.116683941835E+04   -0.21793E-03   -0.28385E-03  1595   0.734E-02    0.695E-02
RMM:   3    -0.116683934895E+04    0.69397E-04   -0.10724E-04  1051   0.153E-02
  10 F= -.11739611E+04 E0= -.11739610E+04  d E =-.109145E-02  mag=    -1.0000
       N       E                     dE             d eps       ncg     rms          rms(c)
DAV:   1    -0.116683942334E+04   -0.49923E-05   -0.57986E-01  1584   0.127E+00    0.188E-01
RMM:   2    -0.116684097537E+04   -0.15520E-02   -0.18848E-02  1597   0.187E-01    0.173E-01
RMM:   3    -0.116684049350E+04    0.48187E-03   -0.82872E-04  1378   0.388E-02    0.158E-01
RMM:   4    -0.116684038006E+04    0.11344E-03   -0.17686E-03  1559   0.464E-02    0.490E-02
RMM:   5    -0.116684035883E+04    0.21236E-04   -0.38849E-05  1053   0.982E-03
  11 F= -.11739618E+04 E0= -.11739618E+04  d E =-.185494E-02  mag=    -1.0000
       N       E                     dE             d eps       ncg     rms          rms(c)
DAV:   1    -0.116684135981E+04   -0.97975E-03   -0.16445E-01  1728   0.683E-01    0.937E-02
RMM:   2    -0.116684171189E+04   -0.35208E-03   -0.44494E-03  1596   0.102E-01    0.923E-02
RMM:   3    -0.116684164129E+04    0.70602E-04   -0.16638E-04  1110   0.194E-02
  12 F= -.11739631E+04 E0= -.11739631E+04  d E =-.132830E-02  mag=    -1.0000
       N       E                     dE             d eps       ncg     rms          rms(c)
DAV:   1    -0.116684166303E+04    0.48859E-04   -0.10000E-02  1728   0.168E-01    0.340E-02
RMM:   2    -0.116684169975E+04   -0.36716E-04   -0.58724E-04  1523   0.380E-02
  13 F= -.11739632E+04 E0= -.11739632E+04  d E =-.137717E-02  mag=    -1.0000
       N       E                     dE             d eps       ncg     rms          rms(c)
DAV:   1    -0.116684243353E+04   -0.77050E-03   -0.47756E-02  1728   0.362E-01    0.592E-02
RMM:   2    -0.116684251479E+04   -0.81251E-04   -0.11318E-03  1582   0.514E-02    0.528E-02
RMM:   3    -0.116684249387E+04    0.20918E-04   -0.51516E-05   989   0.111E-02
  14 F= -.11739639E+04 E0= -.11739639E+04  d E =-.747811E-03  mag=    -1.0000
       N       E                     dE             d eps       ncg     rms          rms(c)
DAV:   1    -0.116684267560E+04   -0.16081E-03   -0.41775E-02  1728   0.339E-01    0.604E-02
RMM:   2    -0.116684273397E+04   -0.58372E-04   -0.85626E-04  1513   0.447E-02
  15 F= -.11739641E+04 E0= -.11739641E+04  d E =-.945767E-03  mag=    -1.0000
