       N       E                     dE             d eps       ncg     rms          rms(c)
DAV:   1     0.504525487588E+04    0.50453E+04   -0.16892E+05  1836   0.908E+02
DAV:   2     0.145571920606E+02   -0.50307E+04   -0.45596E+04  2556   0.213E+02
DAV:   3    -0.117297539145E+04   -0.11875E+04   -0.11805E+04  2124   0.114E+02
DAV:   4    -0.122691661080E+04   -0.53941E+02   -0.53560E+02  2088   0.330E+01
DAV:   5    -0.122920144530E+04   -0.22848E+01   -0.22794E+01  2520   0.655E+00    0.593E+01
RMM:   6    -0.121646816339E+04    0.12733E+02   -0.56800E+00  1767   0.322E+00    0.487E+01
RMM:   7    -0.118149299941E+04    0.34975E+02   -0.42667E+01  1983   0.878E+00    0.298E+01
RMM:   8    -0.116854303465E+04    0.12950E+02   -0.16709E+01  1890   0.670E+00    0.218E+01
RMM:   9    -0.116655506732E+04    0.19880E+01   -0.32618E+01  2043   0.876E+00    0.946E+00
RMM:  10    -0.116655216855E+04    0.28988E-02   -0.14974E+00  2045   0.284E+00    0.764E+00
RMM:  11    -0.116616668751E+04    0.38548E+00   -0.82328E-01  1985   0.158E+00    0.407E+00
RMM:  12    -0.116604979109E+04    0.11690E+00   -0.63534E-01  1922   0.128E+00    0.187E+00
RMM:  13    -0.116598486858E+04    0.64923E-01   -0.14313E-01  1937   0.893E-01    0.109E+00
RMM:  14    -0.116592935718E+04    0.55511E-01   -0.14914E-01  2078   0.483E-01    0.487E-01
RMM:  15    -0.116592102647E+04    0.83307E-02   -0.15202E-02  1998   0.129E-01    0.370E-01
RMM:  16    -0.116591559641E+04    0.54301E-02   -0.52121E-03  1600   0.673E-02    0.283E-01
RMM:  17    -0.116591635596E+04   -0.75955E-03   -0.23666E-02  2033   0.118E-01    0.609E-01
RMM:  18    -0.116591279789E+04    0.35581E-02   -0.74079E-04  1253   0.369E-02    0.286E-01
RMM:  19    -0.116591222668E+04    0.57121E-03   -0.30678E-04  1111   0.366E-02    0.197E-01
RMM:  20    -0.116591268886E+04   -0.46218E-03   -0.19126E-03  1903   0.582E-02    0.140E-01
RMM:  21    -0.116591314851E+04   -0.45965E-03   -0.24190E-04  1169   0.386E-02    0.152E-01
RMM:  22    -0.116591282925E+04    0.31926E-03   -0.26798E-04  1148   0.302E-02    0.103E-01
RMM:  23    -0.116591322644E+04   -0.39719E-03   -0.11867E-03  1409   0.405E-02    0.113E-01
RMM:  24    -0.116591387858E+04   -0.65213E-03   -0.48022E-04  1180   0.407E-02    0.125E-01
RMM:  25    -0.116591447769E+04   -0.59912E-03   -0.61055E-04  1367   0.389E-02    0.122E-01
RMM:  26    -0.116591455122E+04   -0.73531E-04   -0.28131E-04  1208   0.391E-02
   1 F= -.11735447E+04 E0= -.11735377E+04  d E =-.117354E+04  mag=     0.7644
       N       E                     dE             d eps       ncg     rms          rms(c)
DAV:   1    -0.116591390140E+04    0.57629E-03   -0.24344E-01  1836   0.817E-01    0.157E-01
RMM:   2    -0.116591411337E+04   -0.21197E-03   -0.68670E-03  1953   0.129E-01    0.139E-01
RMM:   3    -0.116591377727E+04    0.33610E-03   -0.64325E-04  1341   0.674E-02    0.106E-01
RMM:   4    -0.116591354376E+04    0.23351E-03   -0.64171E-04  1318   0.558E-02    0.665E-02
RMM:   5    -0.116591350186E+04    0.41908E-04   -0.44358E-04  1359   0.431E-02
   2 F= -.11735439E+04 E0= -.11735376E+04  d E =0.826335E-03  mag=     0.7987
       N       E                     dE             d eps       ncg     rms          rms(c)
DAV:   1    -0.116591432503E+04   -0.78127E-03   -0.51324E-02  1980   0.375E-01    0.639E-02
RMM:   2    -0.116591437194E+04   -0.46905E-04   -0.11698E-03  1833   0.570E-02    0.609E-02
RMM:   3    -0.116591432826E+04    0.43679E-04   -0.83132E-05   985   0.381E-02
   3 F= -.11735446E+04 E0= -.11735384E+04  d E =0.982216E-04  mag=     0.8016
