       N       E                     dE             d eps       ncg     rms          rms(c)
DAV:   1     0.505977124382E+04    0.50598E+04   -0.16831E+05  1836   0.906E+02
DAV:   2     0.205060479167E+02   -0.50393E+04   -0.45656E+04  2520   0.214E+02
DAV:   3    -0.117246500532E+04   -0.11930E+04   -0.11866E+04  2196   0.114E+02
DAV:   4    -0.122647908126E+04   -0.54014E+02   -0.53677E+02  2160   0.330E+01
DAV:   5    -0.122830458978E+04   -0.18255E+01   -0.18204E+01  2556   0.546E+00    0.595E+01
RMM:   6    -0.121559383536E+04    0.12711E+02   -0.59250E+00  1813   0.320E+00    0.488E+01
RMM:   7    -0.117206248642E+04    0.43531E+02   -0.62604E+01  1945   0.102E+01    0.281E+01
RMM:   8    -0.116461396617E+04    0.74485E+01   -0.20155E+01  1971   0.830E+00    0.165E+01
RMM:   9    -0.116481667332E+04   -0.20271E+00   -0.22826E+01  1987   0.716E+00    0.933E+00
RMM:  10    -0.116378042398E+04    0.10362E+01   -0.30801E+00  2006   0.406E+00    0.395E+00
RMM:  11    -0.116378121106E+04   -0.78708E-03   -0.59341E-01  2084   0.136E+00    0.157E+00
RMM:  12    -0.116371565345E+04    0.65558E-01   -0.14245E-01  2090   0.487E-01    0.990E-01
RMM:  13    -0.116370399785E+04    0.11656E-01   -0.20839E-01  1811   0.579E-01    0.674E-01
RMM:  14    -0.116368699130E+04    0.17007E-01   -0.80336E-02  1905   0.681E-01    0.265E-01
RMM:  15    -0.116369020410E+04   -0.32128E-02   -0.22665E-02  2025   0.283E-01    0.319E-01
RMM:  16    -0.116368844001E+04    0.17641E-02   -0.89729E-03  1853   0.141E-01    0.125E-01
RMM:  17    -0.116368872672E+04   -0.28671E-03   -0.11909E-03  1580   0.115E-01    0.824E-02
RMM:  18    -0.116368885594E+04   -0.12922E-03   -0.39325E-04  1224   0.612E-02    0.552E-02
RMM:  19    -0.116368904818E+04   -0.19223E-03   -0.48101E-04  1493   0.395E-02    0.737E-02
RMM:  20    -0.116368895446E+04    0.93719E-04   -0.10489E-04  1081   0.365E-02
   1 F= -.11712848E+04 E0= -.11712848E+04  d E =-.117128E+04  mag=     0.0015
       N       E                     dE             d eps       ncg     rms          rms(c)
DAV:   1    -0.116368951494E+04   -0.46677E-03   -0.23228E-01  1836   0.801E-01    0.196E-01
RMM:   2    -0.116368945222E+04    0.62722E-04   -0.64066E-03  1980   0.131E-01    0.181E-01
RMM:   3    -0.116368854560E+04    0.90662E-03   -0.69344E-04  1730   0.638E-02    0.136E-01
RMM:   4    -0.116368776295E+04    0.78265E-03   -0.42177E-03  1935   0.939E-02    0.459E-02
RMM:   5    -0.116368776717E+04   -0.42222E-05   -0.21122E-04  1162   0.544E-02
   2 F= -.11712843E+04 E0= -.11712843E+04  d E =0.562570E-03  mag=     0.0003
       N       E                     dE             d eps       ncg     rms          rms(c)
DAV:   1    -0.116368951814E+04   -0.17552E-02   -0.69973E-02  1980   0.436E-01    0.984E-02
RMM:   2    -0.116368943528E+04    0.82860E-04   -0.12563E-03  1692   0.659E-02    0.890E-02
RMM:   3    -0.116368907636E+04    0.35892E-03   -0.25468E-04  1111   0.528E-02    0.574E-02
RMM:   4    -0.116368896338E+04    0.11298E-03   -0.14477E-03  1798   0.506E-02    0.259E-02
RMM:   5    -0.116368896988E+04   -0.64984E-05   -0.99023E-05  1069   0.442E-02
   3 F= -.11712851E+04 E0= -.11712851E+04  d E =-.298264E-03  mag=    -0.0001
