       N       E                     dE             d eps       ncg     rms          rms(c)
DAV:   1     0.483759785234E+04    0.48376E+04   -0.17254E+05  1728   0.989E+02
DAV:   2     0.339555309072E+01   -0.48342E+04   -0.44489E+04  2268   0.223E+02
DAV:   3    -0.116452866237E+04   -0.11679E+04   -0.11609E+04  1800   0.121E+02
DAV:   4    -0.122811842213E+04   -0.63590E+02   -0.63144E+02  1980   0.385E+01
DAV:   5    -0.123022033672E+04   -0.21019E+01   -0.20947E+01  2052   0.662E+00    0.606E+01
RMM:   6    -0.121686279212E+04    0.13358E+02   -0.74969E+00  1619   0.372E+00    0.495E+01
RMM:   7    -0.117400233777E+04    0.42860E+02   -0.72156E+01  1727   0.120E+01    0.286E+01
RMM:   8    -0.116356378593E+04    0.10439E+02   -0.40617E+01  1777   0.119E+01    0.137E+01
RMM:   9    -0.116485309879E+04   -0.12893E+01   -0.15628E+01  1671   0.709E+00    0.905E+00
RMM:  10    -0.116391108850E+04    0.94201E+00   -0.26401E+00  1687   0.497E+00    0.553E+00
RMM:  11    -0.116367787384E+04    0.23321E+00   -0.19080E+00  1623   0.179E+00    0.245E+00
RMM:  12    -0.116355160654E+04    0.12627E+00   -0.31466E-01  1583   0.213E+00    0.121E+00
RMM:  13    -0.116353761347E+04    0.13993E-01   -0.23372E-01  1768   0.620E-01    0.682E-01
RMM:  14    -0.116353205107E+04    0.55624E-02   -0.40878E-02  1633   0.400E-01    0.499E-01
RMM:  15    -0.116353519751E+04   -0.31464E-02   -0.18501E-02  1623   0.260E-01    0.473E-01
RMM:  16    -0.116353124118E+04    0.39563E-02   -0.11984E-02  1659   0.218E-01    0.182E-01
RMM:  17    -0.116353136811E+04   -0.12694E-03   -0.30484E-03  1560   0.120E-01    0.144E-01
RMM:  18    -0.116353139150E+04   -0.23392E-04   -0.11902E-03  1447   0.825E-02    0.705E-02
RMM:  19    -0.116353132136E+04    0.70146E-04   -0.38669E-04  1041   0.520E-02
   1 F= -.11705140E+04 E0= -.11705140E+04  d E =-.117051E+04  mag=    -0.0017
       N       E                     dE             d eps       ncg     rms          rms(c)
DAV:   1    -0.116353123768E+04    0.15383E-03   -0.20101E-01  1584   0.874E-01    0.141E-01
RMM:   2    -0.116353169353E+04   -0.45585E-03   -0.75570E-03  1693   0.138E-01    0.132E-01
RMM:   3    -0.116353153852E+04    0.15501E-03   -0.87582E-04  1235   0.981E-02    0.115E-01
RMM:   4    -0.116353113403E+04    0.40449E-03   -0.85676E-04  1449   0.510E-02    0.498E-02
RMM:   5    -0.116353113035E+04    0.36754E-05   -0.40522E-04  1125   0.808E-02
   2 F= -.11705138E+04 E0= -.11705138E+04  d E =0.140288E-03  mag=     0.0004
       N       E                     dE             d eps       ncg     rms          rms(c)
DAV:   1    -0.116353182405E+04   -0.69002E-03   -0.51118E-02  1584   0.438E-01    0.675E-02
RMM:   2    -0.116353189657E+04   -0.72525E-04   -0.15847E-03  1454   0.646E-02    0.620E-02
RMM:   3    -0.116353182442E+04    0.72154E-04   -0.20413E-04   931   0.665E-02
   3 F= -.11705145E+04 E0= -.11705145E+04  d E =-.528283E-03  mag=    -0.0001
