       N       E                     dE             d eps       ncg     rms          rms(c)
DAV:   1     0.502092804613E+04    0.50209E+04   -0.17299E+05  1792   0.949E+02
DAV:   2    -0.147883638455E+02   -0.50357E+04   -0.46081E+04  2496   0.219E+02
DAV:   3    -0.120254260434E+04   -0.11878E+04   -0.11781E+04  2016   0.116E+02
DAV:   4    -0.125474637039E+04   -0.52204E+02   -0.51849E+02  1920   0.325E+01
DAV:   5    -0.125620417419E+04   -0.14578E+01   -0.14537E+01  2336   0.522E+00    0.761E+01
RMM:   6    -0.125126915088E+04    0.49350E+01   -0.96117E+01  1725   0.159E+01    0.823E+01
RMM:   7    -0.122816317349E+04    0.23106E+02   -0.14064E+01  1540   0.666E+00    0.529E+01
RMM:   8    -0.121151432713E+04    0.16649E+02   -0.11480E+01  1563   0.464E+00    0.402E+01
RMM:   9    -0.118803793332E+04    0.23476E+02   -0.32006E+01  1667   0.704E+00    0.269E+01
RMM:  10    -0.117840372303E+04    0.96342E+01   -0.17757E+01  1564   0.584E+00    0.187E+01
RMM:  11    -0.117846054200E+04   -0.56819E-01   -0.13098E+01  1598   0.510E+00    0.934E+00
RMM:  12    -0.117897237775E+04   -0.51184E+00   -0.31703E+00  1814   0.276E+00    0.770E+00
RMM:  13    -0.117840321915E+04    0.56916E+00   -0.98226E-01  1562   0.145E+00    0.470E+00
RMM:  14    -0.117825300575E+04    0.15021E+00   -0.43322E-01  1605   0.886E-01    0.236E+00
RMM:  15    -0.117813991008E+04    0.11310E+00   -0.35706E-01  1544   0.792E-01    0.828E-01
RMM:  16    -0.117814812180E+04   -0.82117E-02   -0.10552E-01  1726   0.483E-01    0.468E-01
RMM:  17    -0.117814483003E+04    0.32918E-02   -0.11611E-02  1555   0.189E-01    0.296E-01
RMM:  18    -0.117814460125E+04    0.22878E-03   -0.53906E-03  1618   0.107E-01    0.272E-01
RMM:  19    -0.117814478046E+04   -0.17921E-03   -0.18280E-03  1722   0.644E-02    0.192E-01
RMM:  20    -0.117814461548E+04    0.16498E-03   -0.42156E-04  1609   0.311E-02    0.132E-01
RMM:  21    -0.117814459074E+04    0.24738E-04   -0.21175E-04  1612   0.190E-02    0.941E-02
RMM:  22    -0.117814463234E+04   -0.41605E-04   -0.12099E-04  1596   0.165E-02    0.572E-02
RMM:  23    -0.117814464666E+04   -0.14314E-04   -0.41451E-05  1656   0.107E-02    0.298E-02
RMM:  24    -0.117814463853E+04    0.81255E-05   -0.22906E-05  1564   0.655E-03    0.214E-02
RMM:  25    -0.117814463825E+04    0.28167E-06   -0.10376E-05  1533   0.460E-03    0.113E-02
RMM:  26    -0.117814463730E+04    0.94921E-06   -0.29491E-06  1139   0.262E-03
   1 F= -.11852967E+04 E0= -.11852967E+04  d E =-.118530E+04  mag=     0.9998
