       N       E                     dE             d eps       ncg     rms          rms(c)
DAV:   1     0.467791167110E+04    0.46779E+04   -0.17896E+05  1888   0.947E+02
DAV:   2    -0.769871091835E+02   -0.47549E+04   -0.43427E+04  2400   0.212E+02
DAV:   3    -0.119542996277E+04   -0.11184E+04   -0.11118E+04  1984   0.111E+02
DAV:   4    -0.124294343696E+04   -0.47513E+02   -0.47205E+02  1952   0.302E+01
DAV:   5    -0.124411764783E+04   -0.11742E+01   -0.11697E+01  2208   0.444E+00    0.812E+01
RMM:   6    -0.122694056422E+04    0.17177E+02   -0.61009E+01  1745   0.933E+00    0.707E+01
RMM:   7    -0.121254816398E+04    0.14392E+02   -0.88687E+00  1581   0.420E+00    0.474E+01
RMM:   8    -0.119494464492E+04    0.17604E+02   -0.15676E+01  1546   0.502E+00    0.349E+01
RMM:   9    -0.117395819341E+04    0.20986E+02   -0.34490E+01  1593   0.747E+00    0.219E+01
RMM:  10    -0.117170826805E+04    0.22499E+01   -0.27774E+01  1556   0.684E+00    0.109E+01
RMM:  11    -0.117181616749E+04   -0.10790E+00   -0.26394E+00  1629   0.273E+00    0.809E+00
RMM:  12    -0.117162690136E+04    0.18927E+00   -0.56484E-01  1823   0.116E+00    0.585E+00
RMM:  13    -0.117140995943E+04    0.21694E+00   -0.49486E-01  1552   0.867E-01    0.311E+00
RMM:  14    -0.117124422227E+04    0.16574E+00   -0.24654E-01  1544   0.664E-01    0.138E+00
RMM:  15    -0.117122858466E+04    0.15638E-01   -0.10671E-01  1541   0.448E-01    0.725E-01
RMM:  16    -0.117123062741E+04   -0.20427E-02   -0.20278E-02  1691   0.219E-01    0.353E-01
RMM:  17    -0.117123162262E+04   -0.99521E-03   -0.71555E-03  1705   0.122E-01    0.302E-01
RMM:  18    -0.117123142986E+04    0.19276E-03   -0.15440E-03  1645   0.664E-02    0.156E-01
RMM:  19    -0.117123162113E+04   -0.19128E-03   -0.11878E-03  1592   0.505E-02    0.976E-02
RMM:  20    -0.117123174802E+04   -0.12689E-03   -0.32260E-04  1683   0.284E-02    0.521E-02
RMM:  21    -0.117123173528E+04    0.12741E-04   -0.13220E-04  1552   0.163E-02    0.355E-02
RMM:  22    -0.117123175669E+04   -0.21410E-04   -0.34887E-05  1566   0.922E-03    0.242E-02
RMM:  23    -0.117123175259E+04    0.41046E-05   -0.23580E-05  1560   0.741E-03    0.191E-02
RMM:  24    -0.117123175267E+04   -0.86242E-07   -0.11759E-05  1554   0.493E-03    0.718E-03
RMM:  25    -0.117123175366E+04   -0.98146E-06   -0.18658E-06  1079   0.224E-03
   1 F= -.11782964E+04 E0= -.11782964E+04  d E =-.117830E+04  mag=     1.0000
       N       E                     dE             d eps       ncg     rms          rms(c)
DAV:   1    -0.117123095110E+04    0.80158E-03   -0.24246E-01  1664   0.869E-01    0.136E-01
RMM:   2    -0.117123150262E+04   -0.55152E-03   -0.74553E-03  1733   0.140E-01    0.122E-01
RMM:   3    -0.117123154891E+04   -0.46295E-04   -0.16729E-03  1982   0.593E-02    0.115E-01
RMM:   4    -0.117123131921E+04    0.22970E-03   -0.39380E-04  1645   0.283E-02    0.826E-02
RMM:   5    -0.117123122505E+04    0.94158E-04   -0.82945E-04  1537   0.347E-02    0.376E-02
RMM:   6    -0.117123120669E+04    0.18362E-04   -0.95180E-05  1612   0.162E-02    0.268E-02
RMM:   7    -0.117123119926E+04    0.74349E-05   -0.37142E-05  1574   0.820E-03    0.178E-02
RMM:   8    -0.117123119738E+04    0.18757E-05   -0.18000E-05  1638   0.552E-03    0.115E-02
RMM:   9    -0.117123119701E+04    0.36862E-06   -0.62423E-06  1627   0.326E-03
   2 F= -.11782963E+04 E0= -.11782963E+04  d E =0.773323E-04  mag=     1.0000
       N       E                     dE             d eps       ncg     rms          rms(c)
DAV:   1    -0.117123201434E+04   -0.81696E-03   -0.64993E-02  1664   0.447E-01    0.711E-02
RMM:   2    -0.117123211819E+04   -0.10385E-03   -0.16228E-03  1721   0.697E-02    0.636E-02
RMM:   3    -0.117123211376E+04    0.44272E-05   -0.32065E-04  1817   0.283E-02    0.586E-02
RMM:   4    -0.117123203681E+04    0.76954E-04   -0.13043E-04  1585   0.161E-02    0.368E-02
RMM:   5    -0.117123201953E+04    0.17276E-04   -0.16743E-04  1546   0.163E-02    0.180E-02
RMM:   6    -0.117123201548E+04    0.40581E-05   -0.19582E-05  1624   0.728E-03    0.133E-02
RMM:   7    -0.117123201356E+04    0.19115E-05   -0.11169E-05  1503   0.414E-03    0.776E-03
RMM:   8    -0.117123201329E+04    0.27452E-06   -0.34472E-06  1272   0.252E-03
   3 F= -.11782969E+04 E0= -.11782969E+04  d E =-.491002E-03  mag=     1.0000
