       N       E                     dE             d eps       ncg     rms          rms(c)
DAV:   1     0.475306611390E+04    0.47531E+04   -0.17453E+05  1872   0.917E+02
DAV:   2    -0.819490368135E+02   -0.48350E+04   -0.44192E+04  2520   0.209E+02
DAV:   3    -0.118265729089E+04   -0.11007E+04   -0.10954E+04  2088   0.108E+02
DAV:   4    -0.122732202030E+04   -0.44665E+02   -0.44464E+02  2016   0.290E+01
DAV:   5    -0.122844388348E+04   -0.11219E+01   -0.11200E+01  2412   0.421E+00    0.606E+01
RMM:   6    -0.121657275053E+04    0.11871E+02   -0.71606E+00  1584   0.310E+00    0.493E+01
RMM:   7    -0.117640791329E+04    0.40165E+02   -0.61904E+01  1584   0.898E+00    0.291E+01
RMM:   8    -0.116555180624E+04    0.10856E+02   -0.48857E+01  1584   0.797E+00    0.127E+01
RMM:   9    -0.116682416212E+04   -0.12724E+01   -0.76814E+00  1592   0.325E+00    0.944E+00
RMM:  10    -0.116555415406E+04    0.12700E+01   -0.42649E+00  1584   0.233E+00    0.292E+00
RMM:  11    -0.116564374770E+04   -0.89594E-01   -0.30905E-01  1586   0.675E-01    0.206E+00
RMM:  12    -0.116554302074E+04    0.10073E+00   -0.13971E-01  1584   0.428E-01    0.104E+00
RMM:  13    -0.116552572530E+04    0.17295E-01   -0.16666E-01  1584   0.459E-01    0.393E-01
RMM:  14    -0.116552087037E+04    0.48549E-02   -0.82430E-03  1594   0.113E-01    0.208E-01
RMM:  15    -0.116552053079E+04    0.33958E-03   -0.15238E-03  1549   0.417E-02    0.132E-01
RMM:  16    -0.116552035105E+04    0.17973E-03   -0.20101E-03  1583   0.480E-02    0.769E-02
RMM:  17    -0.116552046091E+04   -0.10986E-03   -0.32355E-04  1152   0.236E-02    0.441E-02
RMM:  18    -0.116552045111E+04    0.98065E-05   -0.40583E-05  1016   0.942E-03
   1 F= -.11726707E+04 E0= -.11726707E+04  d E =-.117267E+04  mag=     1.0014
       N       E                     dE             d eps       ncg     rms          rms(c)
DAV:   1    -0.116551929402E+04    0.11669E-02   -0.50128E-01  1656   0.108E+00    0.186E-01
RMM:   2    -0.116552016462E+04   -0.87061E-03   -0.13587E-02  1584   0.159E-01    0.172E-01
RMM:   3    -0.116551988589E+04    0.27873E-03   -0.66589E-04  1371   0.339E-02    0.155E-01
RMM:   4    -0.116551918634E+04    0.69955E-03   -0.30712E-03  1584   0.618E-02    0.557E-02
RMM:   5    -0.116551917292E+04    0.13422E-04   -0.73784E-05  1022   0.131E-02
   2 F= -.11726697E+04 E0= -.11726697E+04  d E =0.105094E-02  mag=     1.0003
       N       E                     dE             d eps       ncg     rms          rms(c)
DAV:   1    -0.116552120246E+04   -0.20161E-02   -0.18481E-01  1872   0.655E-01    0.104E-01
RMM:   2    -0.116552144064E+04   -0.23818E-03   -0.41703E-03  1584   0.908E-02    0.950E-02
RMM:   3    -0.116552132455E+04    0.11609E-03   -0.17719E-04  1081   0.186E-02    0.840E-02
RMM:   4    -0.116552107813E+04    0.24643E-03   -0.11798E-03  1583   0.385E-02    0.282E-02
RMM:   5    -0.116552107612E+04    0.20113E-05   -0.20487E-05   999   0.749E-03
   3 F= -.11726715E+04 E0= -.11726715E+04  d E =-.713125E-03  mag=     1.0002
