       N       E                     dE             d eps       ncg     rms          rms(c)
DAV:   1     0.470008418505E+04    0.47001E+04   -0.17760E+05  1888   0.944E+02
DAV:   2    -0.731871398503E+02   -0.47733E+04   -0.43583E+04  2432   0.214E+02
DAV:   3    -0.119090404471E+04   -0.11177E+04   -0.11112E+04  2016   0.112E+02
DAV:   4    -0.123888360946E+04   -0.47980E+02   -0.47640E+02  1952   0.318E+01
DAV:   5    -0.124027156268E+04   -0.13880E+01   -0.13829E+01  2240   0.499E+00    0.756E+01
RMM:   6    -0.122475335191E+04    0.15518E+02   -0.10002E+01  1561   0.411E+00    0.568E+01
RMM:   7    -0.120045402647E+04    0.24299E+02   -0.10466E+02  1652   0.115E+01    0.415E+01
RMM:   8    -0.119584194627E+04    0.46121E+01   -0.73480E+00  1555   0.524E+00    0.373E+01
RMM:   9    -0.118293600736E+04    0.12906E+02   -0.91261E+00  1548   0.407E+00    0.275E+01
RMM:  10    -0.117435643988E+04    0.85796E+01   -0.19407E+01  1608   0.561E+00    0.181E+01
RMM:  11    -0.117553917480E+04   -0.11827E+01   -0.94727E+00  1582   0.434E+00    0.173E+01
RMM:  12    -0.117553775989E+04    0.14149E-02   -0.11815E+00  1766   0.200E+00    0.175E+01
RMM:  13    -0.117576010870E+04   -0.22235E+00   -0.11091E+00  1540   0.143E+00    0.163E+01
RMM:  14    -0.117679606034E+04   -0.10360E+01   -0.24477E+00  1643   0.216E+00    0.105E+01
RMM:  15    -0.117689459262E+04   -0.98532E-01   -0.68522E-01  1665   0.955E-01    0.135E+01
RMM:  16    -0.117633818086E+04    0.55641E+00   -0.11792E-01  1554   0.596E-01    0.108E+01
RMM:  17    -0.117595106379E+04    0.38712E+00   -0.58356E-01  1656   0.921E-01    0.102E+01
RMM:  18    -0.117441423948E+04    0.15368E+01   -0.79300E-01  1814   0.121E+00    0.103E+01
RMM:  19    -0.117447734716E+04   -0.63108E-01   -0.19019E-01  1613   0.644E-01    0.866E+00
RMM:  20    -0.117464544407E+04   -0.16810E+00   -0.23788E-01  1633   0.704E-01    0.644E+00
RMM:  21    -0.117474848612E+04   -0.10304E+00   -0.38274E-01  1746   0.827E-01    0.753E+00
RMM:  22    -0.117496985649E+04   -0.22137E+00   -0.77472E-02  1746   0.457E-01    0.100E+01
RMM:  23    -0.117496765589E+04    0.22006E-02   -0.13269E-02  1793   0.231E-01    0.984E+00
RMM:  24    -0.117501848852E+04   -0.50833E-01   -0.34711E-03  1572   0.934E-02    0.952E+00
RMM:  25    -0.117520502108E+04   -0.18653E+00   -0.15335E-01  2053   0.492E-01    0.653E+00
RMM:  26    -0.117519403197E+04    0.10989E-01   -0.29389E-02  1689   0.214E-01    0.601E+00
RMM:  27    -0.117488164061E+04    0.31239E+00   -0.53453E-02  1759   0.338E-01    0.589E+00
RMM:  28    -0.117485887832E+04    0.22762E-01   -0.10477E-02  1695   0.135E-01    0.359E+00
RMM:  29    -0.117488103997E+04   -0.22162E-01   -0.14224E-02  1687   0.185E-01    0.310E+00
RMM:  30    -0.117488855165E+04   -0.75117E-02   -0.11004E-02  1659   0.153E-01    0.105E+00
RMM:  31    -0.117491090966E+04   -0.22358E-01   -0.13437E-02  1679   0.231E-01    0.103E+00
RMM:  32    -0.117491996272E+04   -0.90531E-02   -0.12322E-02  1808   0.164E-01    0.675E-01
RMM:  33    -0.117493019955E+04   -0.10237E-01   -0.10541E-02  1747   0.149E-01    0.141E+00
RMM:  34    -0.117492835583E+04    0.18437E-02   -0.17551E-03  1770   0.898E-02    0.135E+00
RMM:  35    -0.117492579481E+04    0.25610E-02   -0.56803E-04  1742   0.370E-02    0.110E+00
RMM:  36    -0.117492495031E+04    0.84450E-03   -0.71640E-03  2125   0.118E-01    0.103E+00
RMM:  37    -0.117492365484E+04    0.12955E-02   -0.59201E-04  1844   0.355E-02    0.478E-01
RMM:  38    -0.117492529698E+04   -0.16421E-02   -0.33422E-04  1568   0.399E-02    0.347E-01
RMM:  39    -0.117492599719E+04   -0.70021E-03   -0.74868E-04  1686   0.430E-02    0.285E-01
RMM:  40    -0.117492618900E+04   -0.19181E-03   -0.63172E-04  1679   0.401E-02    0.287E-01
RMM:  41    -0.117492589306E+04    0.29594E-03   -0.18701E-04  1590   0.193E-02    0.192E-01
RMM:  42    -0.117492599457E+04   -0.10151E-03   -0.14656E-04  1590   0.181E-02    0.178E-01
RMM:  43    -0.117492617231E+04   -0.17774E-03   -0.11996E-04  1636   0.183E-02    0.798E-02
RMM:  44    -0.117492630290E+04   -0.13058E-03   -0.48431E-05  1569   0.109E-02    0.116E-01
RMM:  45    -0.117492626065E+04    0.42249E-04   -0.15289E-05  1546   0.725E-03    0.477E-02
RMM:  46    -0.117492628899E+04   -0.28348E-04   -0.74711E-06  1284   0.464E-03    0.426E-02
RMM:  47    -0.117492629405E+04   -0.50598E-05   -0.67107E-06  1288   0.354E-03    0.173E-02
RMM:  48    -0.117492630185E+04   -0.77978E-05   -0.40201E-06  1171   0.315E-03    0.876E-03
RMM:  49    -0.117492630620E+04   -0.43487E-05   -0.22484E-06  1101   0.249E-03    0.266E-02
RMM:  50    -0.117492630477E+04    0.14314E-05   -0.61654E-07  1018   0.180E-03    0.193E-02
RMM:  51    -0.117492630598E+04   -0.12125E-05   -0.53234E-07  1020   0.123E-03    0.215E-02
RMM:  52    -0.117492630407E+04    0.19103E-05   -0.19115E-07  1005   0.877E-04    0.845E-03
RMM:  53    -0.117492630500E+04   -0.93222E-06   -0.11284E-07   893   0.644E-04
   1 F= -.11819752E+04 E0= -.11819732E+04  d E =-.118198E+04  mag=     0.0471
       N       E                     dE             d eps       ncg     rms          rms(c)
DAV:   1    -0.117492429108E+04    0.20130E-02   -0.31075E-01  1696   0.103E+00    0.195E-01
RMM:   2    -0.117492523541E+04   -0.94433E-03   -0.10445E-02  1571   0.168E-01    0.350E-01
RMM:   3    -0.117492539321E+04   -0.15780E-03   -0.22680E-03  1905   0.730E-02    0.263E-01
RMM:   4    -0.117492533932E+04    0.53893E-04   -0.35630E-04  1759   0.264E-02    0.278E-01
RMM:   5    -0.117492515422E+04    0.18510E-03   -0.86928E-04  1550   0.355E-02    0.150E-01
RMM:   6    -0.117492524386E+04   -0.89644E-04   -0.42193E-04  1614   0.265E-02    0.138E-01
RMM:   7    -0.117492516461E+04    0.79252E-04   -0.71545E-05  1541   0.127E-02    0.121E-01
RMM:   8    -0.117492514772E+04    0.16894E-04   -0.18901E-04  1559   0.155E-02    0.637E-02
RMM:   9    -0.117492515272E+04   -0.50053E-05   -0.25905E-05  1803   0.867E-03    0.561E-02
RMM:  10    -0.117492514920E+04    0.35260E-05   -0.65586E-06  1450   0.367E-03    0.453E-02
RMM:  11    -0.117492514713E+04    0.20657E-05   -0.59997E-06  1446   0.332E-03    0.290E-02
RMM:  12    -0.117492514650E+04    0.62511E-06   -0.11202E-06  1026   0.187E-03
   2 F= -.11819745E+04 E0= -.11819725E+04  d E =0.747937E-03  mag=     0.0455
       N       E                     dE             d eps       ncg     rms          rms(c)
DAV:   1    -0.117492634688E+04   -0.11997E-02   -0.12000E-01  1760   0.640E-01    0.119E-01
RMM:   2    -0.117492664714E+04   -0.30026E-03   -0.34362E-03  1544   0.102E-01    0.221E-01
RMM:   3    -0.117492667739E+04   -0.30245E-04   -0.69373E-04  1856   0.438E-02    0.156E-01
RMM:   4    -0.117492665803E+04    0.19357E-04   -0.13415E-04  1727   0.163E-02    0.163E-01
RMM:   5    -0.117492658579E+04    0.72236E-04   -0.32688E-04  1548   0.221E-02    0.797E-02
RMM:   6    -0.117492661157E+04   -0.25782E-04   -0.13410E-04  1611   0.155E-02    0.717E-02
RMM:   7    -0.117492658748E+04    0.24091E-04   -0.27533E-05  1538   0.770E-03    0.586E-02
RMM:   8    -0.117492658552E+04    0.19675E-05   -0.56479E-05  1545   0.868E-03    0.290E-02
RMM:   9    -0.117492658628E+04   -0.76809E-06   -0.51450E-06  1401   0.478E-03
   3 F= -.11819756E+04 E0= -.11819737E+04  d E =-.436507E-03  mag=     0.0465
