       N       E                     dE             d eps       ncg     rms          rms(c)
DAV:   1     0.477280804467E+04    0.47728E+04   -0.17990E+05  1908   0.925E+02
DAV:   2    -0.811276400852E+02   -0.48539E+04   -0.44481E+04  2520   0.212E+02
DAV:   3    -0.119786570471E+04   -0.11167E+04   -0.11090E+04  2088   0.110E+02
DAV:   4    -0.124393550030E+04   -0.46070E+02   -0.45810E+02  2052   0.291E+01
DAV:   5    -0.124511688380E+04   -0.11814E+01   -0.11784E+01  2340   0.445E+00    0.997E+01
RMM:   6    -0.124427577297E+04    0.84111E+00   -0.20384E+02  1889   0.187E+01    0.100E+02
RMM:   7    -0.122049411350E+04    0.23782E+02   -0.10382E+01  1595   0.501E+00    0.742E+01
RMM:   8    -0.119846331510E+04    0.22031E+02   -0.34382E+01  1593   0.724E+00    0.434E+01
RMM:   9    -0.118526501083E+04    0.13198E+02   -0.32572E+00  1594   0.231E+00    0.337E+01
RMM:  10    -0.117550095009E+04    0.97641E+01   -0.76812E+00  1584   0.358E+00    0.272E+01
RMM:  11    -0.116378053908E+04    0.11720E+02   -0.31095E+01  1584   0.648E+00    0.161E+01
RMM:  12    -0.116460598236E+04   -0.82544E+00   -0.83777E+00  1589   0.372E+00    0.924E+00
RMM:  13    -0.116462194294E+04   -0.15961E-01   -0.62651E-01  1704   0.107E+00    0.686E+00
RMM:  14    -0.116418623604E+04    0.43571E+00   -0.20745E+00  1609   0.181E+00    0.709E+00
RMM:  15    -0.116387011567E+04    0.31612E+00   -0.58703E-01  1639   0.108E+00    0.170E+00
RMM:  16    -0.116383072801E+04    0.39388E-01   -0.15123E-01  1593   0.446E-01    0.879E-01
RMM:  17    -0.116384097155E+04   -0.10244E-01   -0.22961E-02  1622   0.219E-01    0.807E-01
RMM:  18    -0.116383509031E+04    0.58812E-02   -0.88430E-03  1646   0.114E-01    0.421E-01
RMM:  19    -0.116383450375E+04    0.58656E-03   -0.14013E-03  1336   0.527E-02    0.355E-01
RMM:  20    -0.116383339189E+04    0.11119E-02   -0.12568E-03  1378   0.367E-02    0.259E-01
RMM:  21    -0.116383257596E+04    0.81593E-03   -0.55800E-04  1129   0.234E-02    0.205E-01
RMM:  22    -0.116383234681E+04    0.22915E-03   -0.12562E-04  1038   0.144E-02    0.192E-01
RMM:  23    -0.116383226799E+04    0.78824E-04   -0.29277E-05  1008   0.914E-03
   1 F= -.11708883E+04 E0= -.11708883E+04  d E =-.117089E+04  mag=     1.0092
       N       E                     dE             d eps       ncg     rms          rms(c)
DAV:   1    -0.116382843826E+04    0.39085E-02   -0.51626E-01  1728   0.145E+00    0.259E-01
RMM:   2    -0.116383109980E+04   -0.26615E-02   -0.29398E-02  1760   0.251E-01    0.210E-01
RMM:   3    -0.116383099824E+04    0.10156E-03   -0.13392E-03  1563   0.567E-02    0.196E-01
RMM:   4    -0.116383078879E+04    0.20945E-03   -0.48739E-04  1375   0.280E-02    0.138E-01
RMM:   5    -0.116383070813E+04    0.80661E-04   -0.73346E-04  1511   0.333E-02
   2 F= -.11708871E+04 E0= -.11708871E+04  d E =0.119051E-02  mag=     1.0003
       N       E                     dE             d eps       ncg     rms          rms(c)
DAV:   1    -0.116383161113E+04   -0.82234E-03   -0.23282E-01  1620   0.969E-01    0.149E-01
RMM:   2    -0.116383266620E+04   -0.10551E-02   -0.11865E-02  1743   0.165E-01    0.120E-01
RMM:   3    -0.116383260345E+04    0.62747E-04   -0.45762E-04  1211   0.353E-02
   3 F= -.11708888E+04 E0= -.11708888E+04  d E =-.456754E-03  mag=     1.0000
