       N       E                     dE             d eps       ncg     rms          rms(c)
DAV:   1     0.462230620625E+04    0.46223E+04   -0.17383E+05  1856   0.928E+02
DAV:   2    -0.102080417530E+03   -0.47244E+04   -0.42861E+04  2400   0.210E+02
DAV:   3    -0.118556917976E+04   -0.10835E+04   -0.10734E+04  1984   0.108E+02
DAV:   4    -0.123072271780E+04   -0.45154E+02   -0.44900E+02  1984   0.292E+01
DAV:   5    -0.123191191447E+04   -0.11892E+01   -0.11865E+01  2240   0.446E+00    0.707E+01
RMM:   6    -0.121252092332E+04    0.19391E+02   -0.20267E+01  1575   0.485E+00    0.503E+01
RMM:   7    -0.119981731975E+04    0.12704E+02   -0.92201E+00  1539   0.401E+00    0.421E+01
RMM:   8    -0.117266622617E+04    0.27151E+02   -0.37835E+01  1618   0.762E+00    0.267E+01
RMM:   9    -0.116249842512E+04    0.10168E+02   -0.22498E+01  1540   0.640E+00    0.179E+01
RMM:  10    -0.116253328543E+04   -0.34860E-01   -0.12936E+01  1546   0.490E+00    0.102E+01
RMM:  11    -0.116304101219E+04   -0.50773E+00   -0.24513E+00  1561   0.241E+00    0.663E+00
RMM:  12    -0.116259560208E+04    0.44541E+00   -0.87751E-01  1544   0.135E+00    0.361E+00
RMM:  13    -0.116248450778E+04    0.11109E+00   -0.81543E-01  1537   0.114E+00    0.974E-01
RMM:  14    -0.116249516706E+04   -0.10659E-01   -0.83883E-02  1569   0.445E-01    0.652E-01
RMM:  15    -0.116249483154E+04    0.33552E-03   -0.19111E-02  1647   0.197E-01    0.690E-01
RMM:  16    -0.116249552677E+04   -0.69524E-03   -0.61578E-03  1633   0.104E-01    0.102E+00
RMM:  17    -0.116249673905E+04   -0.12123E-02   -0.30848E-03  1581   0.709E-02    0.629E-01
RMM:  18    -0.116249707401E+04   -0.33496E-03   -0.16606E-03  1587   0.468E-02    0.462E-01
RMM:  19    -0.116249768118E+04   -0.60717E-03   -0.19440E-03  1582   0.560E-02    0.157E-01
RMM:  20    -0.116249776842E+04   -0.87239E-04   -0.37164E-04  1603   0.232E-02    0.136E-01
RMM:  21    -0.116249785755E+04   -0.89129E-04   -0.18323E-04  1562   0.160E-02    0.105E-01
RMM:  22    -0.116249784986E+04    0.76916E-05   -0.23036E-04  1564   0.175E-02    0.359E-02
RMM:  23    -0.116249786302E+04   -0.13165E-04   -0.52414E-05  1653   0.879E-03    0.261E-02
RMM:  24    -0.116249785951E+04    0.35077E-05   -0.15076E-05  1538   0.460E-03    0.204E-02
RMM:  25    -0.116249785806E+04    0.14502E-05   -0.10617E-05  1541   0.377E-03    0.110E-02
RMM:  26    -0.116249785799E+04    0.73669E-07   -0.41417E-06  1148   0.235E-03
   1 F= -.11624979E+04 E0= -.11624979E+04  d E =-.116250E+04  mag=     1.9998
       N       E                     dE             d eps       ncg     rms          rms(c)
DAV:   1    -0.116247101107E+04    0.26847E-01   -0.10484E+01  1728   0.464E+00    0.892E-01
RMM:   2    -0.116248946698E+04   -0.18456E-01   -0.20944E-01  1545   0.724E-01    0.103E+00
RMM:   3    -0.116249514883E+04   -0.56819E-02   -0.57512E-02  1717   0.291E-01    0.977E-01
RMM:   4    -0.116249507623E+04    0.72608E-04   -0.94091E-03  1901   0.120E-01    0.100E+00
RMM:   5    -0.116249370659E+04    0.13696E-02   -0.13580E-03  1677   0.482E-02    0.974E-01
RMM:   6    -0.116249063093E+04    0.30757E-02   -0.46542E-02  1568   0.234E-01    0.103E+00
RMM:   7    -0.116249199824E+04   -0.13673E-02   -0.16806E-02  1568   0.154E-01    0.104E+00
RMM:   8    -0.116249063950E+04    0.13587E-02   -0.23064E-03  1672   0.663E-02    0.896E-01
RMM:   9    -0.116248830302E+04    0.23365E-02   -0.40572E-03  1574   0.679E-02    0.574E-01
RMM:  10    -0.116248820058E+04    0.10245E-03   -0.15212E-03  1597   0.458E-02    0.445E-01
RMM:  11    -0.116248808487E+04    0.11570E-03   -0.38813E-04  1644   0.270E-02    0.372E-01
RMM:  12    -0.116248803390E+04    0.50978E-04   -0.35921E-04  1606   0.218E-02    0.245E-01
RMM:  13    -0.116248796844E+04    0.65457E-04   -0.15932E-04  1627   0.145E-02    0.184E-01
RMM:  14    -0.116248791678E+04    0.51661E-04   -0.15974E-04  1626   0.140E-02    0.115E-01
RMM:  15    -0.116248789609E+04    0.20689E-04   -0.81780E-05  1608   0.103E-02    0.747E-02
RMM:  16    -0.116248789476E+04    0.13311E-05   -0.48390E-05  1651   0.801E-03    0.461E-02
RMM:  17    -0.116248789773E+04   -0.29692E-05   -0.11466E-05  1545   0.457E-03    0.242E-02
RMM:  18    -0.116248789837E+04   -0.64541E-06   -0.64071E-06  1366   0.305E-03
   2 F= -.11624879E+04 E0= -.11624879E+04  d E =0.995962E-02  mag=     2.0000
       N       E                     dE             d eps       ncg     rms          rms(c)
DAV:   1    -0.116251273084E+04   -0.24833E-01   -0.31986E+00  1664   0.259E+00    0.513E-01
RMM:   2    -0.116251782648E+04   -0.50956E-02   -0.59974E-02  1550   0.396E-01    0.565E-01
RMM:   3    -0.116251904594E+04   -0.12195E-02   -0.13776E-02  1657   0.155E-01    0.518E-01
RMM:   4    -0.116251883692E+04    0.20902E-03   -0.24230E-03  1752   0.650E-02    0.519E-01
RMM:   5    -0.116251775934E+04    0.10776E-02   -0.18539E-03  1552   0.536E-02    0.400E-01
RMM:   6    -0.116251722048E+04    0.53886E-03   -0.89209E-03  1629   0.104E-01    0.305E-01
RMM:   7    -0.116251698930E+04    0.23118E-03   -0.96539E-04  1599   0.440E-02    0.230E-01
RMM:   8    -0.116251697418E+04    0.15127E-04   -0.28706E-04  1741   0.208E-02    0.194E-01
RMM:   9    -0.116251692468E+04    0.49494E-04   -0.45540E-04  1582   0.232E-02    0.104E-01
RMM:  10    -0.116251696902E+04   -0.44341E-04   -0.13002E-04  1648   0.150E-02    0.678E-02
RMM:  11    -0.116251697296E+04   -0.39356E-05   -0.33848E-05  1627   0.742E-03    0.564E-02
RMM:  12    -0.116251697624E+04   -0.32763E-05   -0.93079E-06  1390   0.368E-03    0.459E-02
RMM:  13    -0.116251697338E+04    0.28509E-05   -0.18470E-05  1518   0.498E-03    0.227E-02
RMM:  14    -0.116251697487E+04   -0.14872E-05   -0.72033E-06  1369   0.313E-03    0.151E-02
RMM:  15    -0.116251697429E+04    0.57994E-06   -0.51014E-06  1302   0.243E-03
   3 F= -.11625170E+04 E0= -.11625170E+04  d E =-.191163E-01  mag=     2.0000
       N       E                     dE             d eps       ncg     rms          rms(c)
DAV:   1    -0.116251829532E+04   -0.13204E-02   -0.40611E+00  1696   0.315E+00    0.518E-01
RMM:   2    -0.116252276310E+04   -0.44678E-02   -0.56148E-02  1547   0.415E-01    0.517E-01
RMM:   3    -0.116252344351E+04   -0.68041E-03   -0.11985E-02  1635   0.165E-01    0.459E-01
RMM:   4    -0.116252226875E+04    0.11748E-02   -0.27914E-03  1665   0.773E-02    0.391E-01
RMM:   5    -0.116252086904E+04    0.13997E-02   -0.85317E-03  1591   0.107E-01    0.170E-01
RMM:   6    -0.116252084489E+04    0.24156E-04   -0.13412E-03  1629   0.536E-02    0.139E-01
RMM:   7    -0.116252066012E+04    0.18477E-03   -0.33730E-04  1616   0.254E-02    0.926E-02
RMM:   8    -0.116252065122E+04    0.88958E-05   -0.47971E-04  1596   0.237E-02    0.482E-02
RMM:   9    -0.116252065968E+04   -0.84570E-05   -0.70816E-05  1692   0.118E-02    0.383E-02
RMM:  10    -0.116252065746E+04    0.22172E-05   -0.23051E-05  1577   0.612E-03    0.334E-02
RMM:  11    -0.116252065476E+04    0.27040E-05   -0.14199E-05  1537   0.472E-03    0.190E-02
RMM:  12    -0.116252065422E+04    0.53331E-06   -0.80013E-06  1513   0.368E-03
   4 F= -.11625207E+04 E0= -.11625207E+04  d E =-.367993E-02  mag=     2.0000
       N       E                     dE             d eps       ncg     rms          rms(c)
DAV:   1    -0.116252525560E+04   -0.46008E-02   -0.74869E-01  1632   0.136E+00    0.226E-01
RMM:   2    -0.116252606936E+04   -0.81376E-03   -0.10356E-02  1548   0.178E-01    0.221E-01
RMM:   3    -0.116252617410E+04   -0.10474E-03   -0.22081E-03  1628   0.708E-02    0.193E-01
RMM:   4    -0.116252596591E+04    0.20819E-03   -0.53030E-04  1661   0.337E-02    0.162E-01
RMM:   5    -0.116252572671E+04    0.23920E-03   -0.14834E-03  1611   0.445E-02    0.686E-02
RMM:   6    -0.116252572889E+04   -0.21774E-05   -0.20968E-04  1633   0.216E-02    0.559E-02
RMM:   7    -0.116252570392E+04    0.24971E-04   -0.68664E-05  1593   0.111E-02    0.342E-02
RMM:   8    -0.116252570764E+04   -0.37220E-05   -0.65885E-05  1565   0.916E-03    0.189E-02
RMM:   9    -0.116252570888E+04   -0.12413E-05   -0.11361E-05  1554   0.462E-03    0.155E-02
RMM:  10    -0.116252570861E+04    0.26898E-06   -0.30447E-06  1184   0.233E-03
   5 F= -.11625257E+04 E0= -.11625257E+04  d E =-.873432E-02  mag=     2.0000
       N       E                     dE             d eps       ncg     rms          rms(c)
DAV:   1    -0.116252432329E+04    0.13856E-02   -0.22550E+00  1760   0.281E+00    0.437E-01
RMM:   2    -0.116252968624E+04   -0.53629E-02   -0.61673E-02  1551   0.353E-01    0.349E-01
RMM:   3    -0.116253013637E+04   -0.45013E-03   -0.13524E-02  1595   0.143E-01    0.249E-01
RMM:   4    -0.116252966423E+04    0.47214E-03   -0.22134E-03  1662   0.667E-02    0.185E-01
RMM:   5    -0.116252931458E+04    0.34965E-03   -0.14206E-03  1562   0.487E-02    0.108E-01
RMM:   6    -0.116252934363E+04   -0.29049E-04   -0.66055E-04  1558   0.362E-02    0.527E-02
RMM:   7    -0.116252936291E+04   -0.19280E-04   -0.12670E-04  1671   0.174E-02    0.337E-02
RMM:   8    -0.116252935549E+04    0.74136E-05   -0.43237E-05  1590   0.895E-03    0.205E-02
RMM:   9    -0.116252935134E+04    0.41491E-05   -0.24740E-05  1558   0.622E-03    0.140E-02
RMM:  10    -0.116252935243E+04   -0.10898E-05   -0.84541E-06  1567   0.392E-03    0.115E-02
RMM:  11    -0.116252935167E+04    0.76229E-06   -0.14544E-06  1047   0.181E-03
   6 F= -.11625294E+04 E0= -.11625294E+04  d E =-.364306E-02  mag=     2.0000
       N       E                     dE             d eps       ncg     rms          rms(c)
DAV:   1    -0.116252993746E+04   -0.58503E-03   -0.24093E-01  1888   0.919E-01    0.141E-01
RMM:   2    -0.116253048393E+04   -0.54646E-03   -0.65622E-03  1551   0.116E-01    0.114E-01
RMM:   3    -0.116253052939E+04   -0.45460E-04   -0.13540E-03  1592   0.468E-02    0.825E-02
RMM:   4    -0.116253048457E+04    0.44812E-04   -0.30144E-04  1642   0.235E-02    0.585E-02
RMM:   5    -0.116253045699E+04    0.27584E-04   -0.15176E-04  1562   0.160E-02    0.354E-02
RMM:   6    -0.116253046330E+04   -0.63081E-05   -0.57662E-05  1563   0.110E-02    0.190E-02
RMM:   7    -0.116253046775E+04   -0.44503E-05   -0.14935E-05  1592   0.583E-03    0.112E-02
RMM:   8    -0.116253046835E+04   -0.60195E-06   -0.48962E-06  1377   0.308E-03
   7 F= -.11625305E+04 E0= -.11625305E+04  d E =-.475974E-02  mag=     2.0000
       N       E                     dE             d eps       ncg     rms          rms(c)
DAV:   1    -0.116252579863E+04    0.46691E-02   -0.17237E+00  1792   0.265E+00    0.405E-01
RMM:   2    -0.116253202243E+04   -0.62238E-02   -0.66680E-02  1551   0.329E-01    0.311E-01
RMM:   3    -0.116253318327E+04   -0.11608E-02   -0.14055E-02  1598   0.130E-01    0.222E-01
RMM:   4    -0.116253309246E+04    0.90810E-04   -0.18468E-03  1686   0.575E-02    0.156E-01
RMM:   5    -0.116253301185E+04    0.80612E-04   -0.71797E-04  1604   0.346E-02    0.105E-01
RMM:   6    -0.116253305882E+04   -0.46970E-04   -0.44893E-04  1551   0.295E-02    0.411E-02
RMM:   7    -0.116253308711E+04   -0.28285E-04   -0.99752E-05  1665   0.151E-02    0.254E-02
RMM:   8    -0.116253307915E+04    0.79515E-05   -0.35179E-05  1557   0.812E-03    0.142E-02
RMM:   9    -0.116253307967E+04   -0.51015E-06   -0.11282E-05  1533   0.455E-03    0.827E-03
RMM:  10    -0.116253308001E+04   -0.34936E-06   -0.27518E-06  1102   0.242E-03
   8 F= -.11625331E+04 E0= -.11625331E+04  d E =-.261166E-02  mag=     2.0000
       N       E                     dE             d eps       ncg     rms          rms(c)
DAV:   1    -0.116253297008E+04    0.10959E-03   -0.14499E-01  1888   0.768E-01    0.118E-01
RMM:   2    -0.116253347162E+04   -0.50154E-03   -0.56251E-03  1551   0.959E-02    0.903E-02
RMM:   3    -0.116253357581E+04   -0.10420E-03   -0.11762E-03  1596   0.380E-02    0.646E-02
RMM:   4    -0.116253357278E+04    0.30299E-05   -0.16543E-04  1683   0.171E-02    0.451E-02
RMM:   5    -0.116253357055E+04    0.22280E-05   -0.58816E-05  1594   0.989E-03    0.307E-02
RMM:   6    -0.116253358058E+04   -0.10030E-04   -0.45447E-05  1541   0.937E-03    0.118E-02
RMM:   7    -0.116253358384E+04   -0.32549E-05   -0.80749E-06  1539   0.447E-03    0.724E-03
RMM:   8    -0.116253358356E+04    0.28291E-06   -0.25783E-06  1096   0.227E-03
   9 F= -.11625336E+04 E0= -.11625336E+04  d E =-.311520E-02  mag=     2.0000
       N       E                     dE             d eps       ncg     rms          rms(c)
DAV:   1    -0.116252933976E+04    0.42441E-02   -0.10899E+00  1792   0.216E+00    0.342E-01
RMM:   2    -0.116253428450E+04   -0.49447E-02   -0.50895E-02  1558   0.269E-01    0.257E-01
RMM:   3    -0.116253543102E+04   -0.11465E-02   -0.10574E-02  1603   0.104E-01    0.179E-01
RMM:   4    -0.116253549523E+04   -0.64210E-04   -0.10800E-03  1707   0.427E-02    0.128E-01
RMM:   5    -0.116253550078E+04   -0.55508E-05   -0.34952E-04  1614   0.241E-02    0.853E-02
RMM:   6    -0.116253555777E+04   -0.56991E-04   -0.18941E-04  1585   0.195E-02    0.385E-02
RMM:   7    -0.116253558899E+04   -0.31215E-04   -0.58190E-05  1631   0.115E-02    0.174E-02
RMM:   8    -0.116253558738E+04    0.16128E-05   -0.15918E-05  1528   0.569E-03    0.983E-03
RMM:   9    -0.116253558698E+04    0.39678E-06   -0.75411E-06  1476   0.353E-03
  10 F= -.11625356E+04 E0= -.11625356E+04  d E =-.200342E-02  mag=     2.0000
       N       E                     dE             d eps       ncg     rms          rms(c)
DAV:   1    -0.116253548924E+04    0.98139E-04   -0.37533E-02  1856   0.401E-01    0.636E-02
RMM:   2    -0.116253564584E+04   -0.15661E-03   -0.17472E-03  1554   0.498E-02    0.479E-02
RMM:   3    -0.116253568856E+04   -0.42719E-04   -0.36071E-04  1595   0.194E-02    0.335E-02
RMM:   4    -0.116253569151E+04   -0.29440E-05   -0.38022E-05  1655   0.810E-03    0.237E-02
RMM:   5    -0.116253569349E+04   -0.19805E-05   -0.12852E-05  1515   0.449E-03    0.159E-02
RMM:   6    -0.116253569768E+04   -0.41958E-05   -0.82381E-06  1520   0.413E-03    0.701E-03
RMM:   7    -0.116253569995E+04   -0.22677E-05   -0.20743E-06  1062   0.222E-03    0.333E-03
RMM:   8    -0.116253570013E+04   -0.18246E-06   -0.56796E-07   986   0.112E-03
  11 F= -.11625357E+04 E0= -.11625357E+04  d E =-.211658E-02  mag=     2.0000
       N       E                     dE             d eps       ncg     rms          rms(c)
DAV:   1    -0.116253318726E+04    0.25127E-02   -0.70530E-01  1792   0.173E+00    0.262E-01
RMM:   2    -0.116253599349E+04   -0.28062E-02   -0.29419E-02  1554   0.214E-01    0.201E-01
RMM:   3    -0.116253664721E+04   -0.65372E-03   -0.61926E-03  1600   0.845E-02    0.144E-01
RMM:   4    -0.116253665546E+04   -0.82496E-05   -0.66727E-04  1694   0.353E-02    0.103E-01
RMM:   5    -0.116253664268E+04    0.12775E-04   -0.25357E-04  1612   0.209E-02    0.676E-02
RMM:   6    -0.116253668410E+04   -0.41419E-04   -0.13427E-04  1575   0.170E-02    0.283E-02
RMM:   7    -0.116253670101E+04   -0.16911E-04   -0.36409E-05  1655   0.927E-03    0.156E-02
RMM:   8    -0.116253670023E+04    0.78431E-06   -0.85604E-06  1511   0.424E-03
  12 F= -.11625367E+04 E0= -.11625367E+04  d E =-.100010E-02  mag=     2.0000
       N       E                     dE             d eps       ncg     rms          rms(c)
DAV:   1    -0.116253661870E+04    0.82316E-04   -0.55568E-02  1856   0.486E-01    0.739E-02
RMM:   2    -0.116253682320E+04   -0.20450E-03   -0.23018E-03  1554   0.595E-02    0.563E-02
RMM:   3    -0.116253687702E+04   -0.53817E-04   -0.47983E-04  1597   0.235E-02    0.400E-02
RMM:   4    -0.116253687948E+04   -0.24644E-05   -0.53098E-05  1682   0.998E-03    0.284E-02
RMM:   5    -0.116253688119E+04   -0.17060E-05   -0.18769E-05  1551   0.567E-03    0.188E-02
RMM:   6    -0.116253688678E+04   -0.55966E-05   -0.12903E-05  1541   0.521E-03    0.752E-03
RMM:   7    -0.116253688901E+04   -0.22265E-05   -0.26800E-06  1088   0.255E-03    0.424E-03
RMM:   8    -0.116253688911E+04   -0.10094E-06   -0.82691E-07  1007   0.135E-03
  13 F= -.11625369E+04 E0= -.11625369E+04  d E =-.118898E-02  mag=     2.0000
