       N       E                     dE             d eps       ncg     rms          rms(c)
DAV:   1     0.475490889458E+04    0.47549E+04   -0.17049E+05  1872   0.898E+02
DAV:   2    -0.866647798170E+02   -0.48416E+04   -0.43937E+04  2520   0.203E+02
DAV:   3    -0.119110247420E+04   -0.11044E+04   -0.10999E+04  2088   0.107E+02
DAV:   4    -0.123615837480E+04   -0.45056E+02   -0.44840E+02  2052   0.284E+01
DAV:   5    -0.123732064073E+04   -0.11623E+01   -0.11600E+01  2340   0.422E+00    0.628E+01
RMM:   6    -0.122431781607E+04    0.13003E+02   -0.76020E+00  1588   0.305E+00    0.514E+01
RMM:   7    -0.118155344014E+04    0.42764E+02   -0.75147E+01  1590   0.940E+00    0.285E+01
RMM:   8    -0.117219864189E+04    0.93548E+01   -0.32098E+01  1585   0.640E+00    0.144E+01
RMM:   9    -0.117310358198E+04   -0.90494E+00   -0.13540E+01  1584   0.418E+00    0.904E+00
RMM:  10    -0.117201450584E+04    0.10891E+01   -0.34113E+00  1588   0.195E+00    0.296E+00
RMM:  11    -0.117192676231E+04    0.87744E-01   -0.13163E-01  1618   0.440E-01    0.148E+00
RMM:  12    -0.117188582165E+04    0.40941E-01   -0.19700E-01  1605   0.361E-01    0.447E-01
RMM:  13    -0.117188537394E+04    0.44771E-03   -0.42105E-02  1586   0.223E-01    0.311E-01
RMM:  14    -0.117188198302E+04    0.33909E-02   -0.15012E-02  1589   0.123E-01    0.139E-01
RMM:  15    -0.117188203207E+04   -0.49051E-04   -0.14487E-03  1594   0.424E-02    0.912E-02
RMM:  16    -0.117188198298E+04    0.49092E-04   -0.45589E-04  1291   0.233E-02
   1 F= -.11791566E+04 E0= -.11791566E+04  d E =-.117916E+04  mag=     0.0005
       N       E                     dE             d eps       ncg     rms          rms(c)
DAV:   1    -0.117188162018E+04    0.41188E-03   -0.31478E-01  1728   0.903E-01    0.176E-01
RMM:   2    -0.117188227334E+04   -0.65315E-03   -0.10450E-02  1596   0.136E-01    0.170E-01
RMM:   3    -0.117188200886E+04    0.26447E-03   -0.62882E-04  1410   0.313E-02    0.155E-01
RMM:   4    -0.117188133886E+04    0.67001E-03   -0.45878E-03  1581   0.720E-02    0.544E-02
RMM:   5    -0.117188126213E+04    0.76729E-04   -0.66087E-05  1048   0.132E-02
   2 F= -.11791563E+04 E0= -.11791563E+04  d E =0.370994E-03  mag=     0.0001
       N       E                     dE             d eps       ncg     rms          rms(c)
DAV:   1    -0.117188274496E+04   -0.14061E-02   -0.10491E-01  1728   0.520E-01    0.875E-02
RMM:   2    -0.117188284094E+04   -0.95977E-04   -0.22271E-03  1592   0.681E-02    0.825E-02
RMM:   3    -0.117188271776E+04    0.12318E-03   -0.12606E-04  1064   0.160E-02    0.696E-02
RMM:   4    -0.117188254221E+04    0.17555E-03   -0.95985E-04  1577   0.338E-02    0.232E-02
RMM:   5    -0.117188253520E+04    0.70014E-05   -0.15960E-05   999   0.649E-03
   3 F= -.11791573E+04 E0= -.11791573E+04  d E =-.695766E-03  mag=     0.0001
