       N       E                     dE             d eps       ncg     rms          rms(c)
DAV:   1     0.516272261483E+04    0.51627E+04   -0.17303E+05  1872   0.922E+02
DAV:   2     0.849793337817E+02   -0.50777E+04   -0.46417E+04  2592   0.213E+02
DAV:   3    -0.118767280587E+04   -0.12727E+04   -0.12654E+04  2268   0.118E+02
DAV:   4    -0.124891700318E+04   -0.61244E+02   -0.60916E+02  2304   0.345E+01
DAV:   5    -0.125049307671E+04   -0.15761E+01   -0.15707E+01  2232   0.525E+00    0.742E+01
RMM:   6    -0.122932870223E+04    0.21164E+02   -0.11541E+01  2157   0.562E+00    0.569E+01
RMM:   7    -0.119988263661E+04    0.29446E+02   -0.42661E+01  2114   0.873E+00    0.368E+01
RMM:   8    -0.118185895184E+04    0.18024E+02   -0.30568E+01  2072   0.794E+00    0.279E+01
RMM:   9    -0.117846421012E+04    0.33947E+01   -0.13151E+01  2068   0.839E+00    0.173E+01
RMM:  10    -0.117995827403E+04   -0.14941E+01   -0.91883E+00  2114   0.438E+00    0.103E+01
RMM:  11    -0.118022892359E+04   -0.27065E+00   -0.90139E-01  2084   0.227E+00    0.710E+00
RMM:  12    -0.117930039845E+04    0.92853E+00   -0.12789E+00  2087   0.160E+00    0.360E+00
RMM:  13    -0.117917193552E+04    0.12846E+00   -0.74085E-01  2096   0.161E+00    0.124E+00
RMM:  14    -0.117916908139E+04    0.28541E-02   -0.50491E-02  2008   0.710E-01    0.696E-01
RMM:  15    -0.117916885450E+04    0.22689E-03   -0.26542E-02  2105   0.242E-01    0.309E-01
RMM:  16    -0.117916822589E+04    0.62861E-03   -0.40467E-03  1793   0.165E-01    0.244E-01
RMM:  17    -0.117916821349E+04    0.12391E-04   -0.15604E-03  1392   0.128E-01    0.182E-01
RMM:  18    -0.117916829203E+04   -0.78531E-04   -0.66721E-04  1257   0.161E-01
   1 F= -.11864919E+04 E0= -.11864919E+04  d E =-.118649E+04  mag=     1.0002
       N       E                     dE             d eps       ncg     rms          rms(c)
DAV:   1    -0.117916492585E+04    0.32876E-02   -0.10238E+00  1836   0.181E+00    0.789E-01
RMM:   2    -0.117916784615E+04   -0.29203E-02   -0.38603E-02  2303   0.272E-01    0.558E-01
RMM:   3    -0.117916779793E+04    0.48220E-04   -0.63339E-03  1297   0.393E-01    0.693E-01
RMM:   4    -0.117916683112E+04    0.96681E-03   -0.31332E-03  1742   0.140E-01    0.630E-01
RMM:   5    -0.117916684871E+04   -0.17587E-04   -0.24254E-03  1727   0.155E-01    0.502E-01
RMM:   6    -0.117916677663E+04    0.72075E-04   -0.10148E-03  1306   0.136E-01    0.398E-01
RMM:   7    -0.117916683005E+04   -0.53416E-04   -0.69892E-04  1266   0.108E-01
   2 F= -.11864917E+04 E0= -.11864917E+04  d E =0.277473E-03  mag=     1.0000
       N       E                     dE             d eps       ncg     rms          rms(c)
DAV:   1    -0.117916929885E+04   -0.25222E-02   -0.26319E-01  2160   0.922E-01    0.306E-01
RMM:   2    -0.117916972248E+04   -0.42364E-03   -0.84165E-03  2174   0.131E-01    0.327E-01
RMM:   3    -0.117916973452E+04   -0.12032E-04   -0.16435E-03  1235   0.306E-01    0.253E-01
RMM:   4    -0.117916925711E+04    0.47741E-03   -0.23292E-04  1189   0.110E-01    0.203E-01
RMM:   5    -0.117916901388E+04    0.24323E-03   -0.43318E-04  1218   0.130E-01    0.168E-01
RMM:   6    -0.117916899135E+04    0.22528E-04   -0.39066E-04  1254   0.160E-01
   3 F= -.11864932E+04 E0= -.11864932E+04  d E =-.129128E-02  mag=     1.0000
       N       E                     dE             d eps       ncg     rms          rms(c)
DAV:   1    -0.117916598953E+04    0.30243E-02   -0.65088E-01  1836   0.127E+00    0.416E-01
RMM:   2    -0.117916639612E+04   -0.40659E-03   -0.11314E-02  2036   0.204E-01    0.964E-01
RMM:   3    -0.117916759356E+04   -0.11974E-02   -0.12317E-02  1330   0.595E-01    0.418E-01
RMM:   4    -0.117916719877E+04    0.39479E-03   -0.43255E-04  1211   0.115E-01    0.343E-01
RMM:   5    -0.117916659712E+04    0.60165E-03   -0.12704E-03  1285   0.136E-01    0.320E-01
RMM:   6    -0.117916653357E+04    0.63555E-04   -0.66476E-04  1260   0.179E-01
   4 F= -.11864897E+04 E0= -.11864897E+04  d E =0.357640E-02  mag=     1.0000
       N       E                     dE             d eps       ncg     rms          rms(c)
DAV:   1    -0.117917009411E+04   -0.34970E-02   -0.40420E-01  1728   0.101E+00    0.275E-01
RMM:   2    -0.117917019068E+04   -0.96564E-04   -0.82642E-03  2030   0.163E-01    0.579E-01
RMM:   3    -0.117917071047E+04   -0.51980E-03   -0.64824E-03  1297   0.542E-01    0.210E-01
RMM:   4    -0.117917017482E+04    0.53566E-03   -0.46506E-04  1171   0.102E-01    0.167E-01
RMM:   5    -0.117916990220E+04    0.27262E-03   -0.40768E-04  1132   0.128E-01    0.118E-01
RMM:   6    -0.117916980489E+04    0.97307E-04   -0.50848E-04  1219   0.167E-01
   5 F= -.11864938E+04 E0= -.11864938E+04  d E =-.534517E-03  mag=     1.0000
