       N       E                     dE             d eps       ncg     rms          rms(c)
DAV:   1     0.490380114489E+04    0.49038E+04   -0.17368E+05  1872   0.911E+02
DAV:   2    -0.507741483836E+02   -0.49546E+04   -0.45197E+04  2520   0.207E+02
DAV:   3    -0.118765263586E+04   -0.11369E+04   -0.11302E+04  2160   0.109E+02
DAV:   4    -0.123254481431E+04   -0.44892E+02   -0.44674E+02  2016   0.285E+01
DAV:   5    -0.123369374886E+04   -0.11489E+01   -0.11463E+01  2340   0.423E+00    0.679E+01
RMM:   6    -0.122304053811E+04    0.10653E+02   -0.38232E+01  1585   0.570E+00    0.557E+01
RMM:   7    -0.120412987768E+04    0.18911E+02   -0.68622E+00  1584   0.293E+00    0.460E+01
RMM:   8    -0.119874143967E+04    0.53884E+01   -0.47381E+01  1584   0.781E+00    0.407E+01
RMM:   9    -0.116616875415E+04    0.32573E+02   -0.15990E+01  1584   0.451E+00    0.261E+01
RMM:  10    -0.116614675648E+04    0.21998E-01   -0.85368E+00  1591   0.277E+00    0.189E+01
RMM:  11    -0.116931050980E+04   -0.31638E+01   -0.95173E+00  1584   0.342E+00    0.139E+01
RMM:  12    -0.116603026314E+04    0.32802E+01   -0.27856E+00  1589   0.173E+00    0.885E+00
RMM:  13    -0.116580367024E+04    0.22659E+00   -0.20363E+00  1584   0.109E+00    0.919E+00
RMM:  14    -0.116555420491E+04    0.24947E+00   -0.13200E-01  1598   0.339E-01    0.853E+00
RMM:  15    -0.116454317180E+04    0.10110E+01   -0.23761E+00  1584   0.145E+00    0.359E+00
RMM:  16    -0.116451977262E+04    0.23399E-01   -0.10703E-01  1595   0.357E-01    0.380E+00
RMM:  17    -0.116448418751E+04    0.35585E-01   -0.25078E-02  1586   0.186E-01    0.307E+00
RMM:  18    -0.116447288852E+04    0.11299E-01   -0.29734E-03  1596   0.614E-02    0.204E+00
RMM:  19    -0.116451270313E+04   -0.39815E-01   -0.47731E-03  1532   0.688E-02    0.351E+00
RMM:  20    -0.116457260417E+04   -0.59901E-01   -0.24894E-02  1587   0.166E-01    0.280E+00
RMM:  21    -0.116458091382E+04   -0.83097E-02   -0.14356E-02  1592   0.116E-01    0.209E+00
RMM:  22    -0.116458014268E+04    0.77114E-03   -0.11725E-03  1202   0.305E-02    0.213E+00
RMM:  23    -0.116458164392E+04   -0.15012E-02   -0.37887E-04  1125   0.196E-02    0.204E+00
RMM:  24    -0.116459431053E+04   -0.12667E-01   -0.13075E-03  1241   0.331E-02    0.183E+00
RMM:  25    -0.116460710730E+04   -0.12797E-01   -0.51153E-03  1538   0.643E-02    0.138E+00
RMM:  26    -0.116461386903E+04   -0.67617E-02   -0.36775E-03  1494   0.535E-02    0.103E+00
RMM:  27    -0.116461581731E+04   -0.19483E-02   -0.91619E-04  1171   0.241E-02    0.942E-01
RMM:  28    -0.116461595251E+04   -0.13520E-03   -0.11010E-04  1046   0.109E-02    0.935E-01
RMM:  29    -0.116461865730E+04   -0.27048E-02   -0.74436E-04  1205   0.253E-02    0.782E-01
RMM:  30    -0.116461886471E+04   -0.20741E-03   -0.11138E-04  1039   0.107E-02    0.762E-01
RMM:  31    -0.116461860412E+04    0.26059E-03   -0.27375E-04  1085   0.179E-02    0.761E-01
RMM:  32    -0.116461918368E+04   -0.57956E-03   -0.59329E-05  1027   0.900E-03    0.711E-01
RMM:  33    -0.116462218963E+04   -0.30059E-02   -0.24162E-03  1304   0.431E-02    0.358E-01
RMM:  34    -0.116462224284E+04   -0.53209E-04   -0.11495E-03  1342   0.340E-02    0.199E-01
RMM:  35    -0.116462240995E+04   -0.16711E-03   -0.19789E-04  1041   0.151E-02    0.185E-01
RMM:  36    -0.116462232784E+04    0.82106E-04   -0.12401E-04  1031   0.124E-02
   1 F= -.11716663E+04 E0= -.11716569E+04  d E =-.117167E+04  mag=     0.3709
       N       E                     dE             d eps       ncg     rms          rms(c)
DAV:   1    -0.116460040443E+04    0.22006E-01   -0.38163E+00  1656   0.322E+00    0.866E-01
RMM:   2    -0.116461266761E+04   -0.12263E-01   -0.13861E-01  1584   0.496E-01    0.878E-01
RMM:   3    -0.116461262316E+04    0.44456E-04   -0.89419E-03  1785   0.106E-01    0.873E-01
RMM:   4    -0.116461246451E+04    0.15865E-03   -0.87548E-04  1321   0.353E-02    0.851E-01
RMM:   5    -0.116461621061E+04   -0.37461E-02   -0.15152E-03  1519   0.404E-02    0.101E+00
RMM:   6    -0.116460782825E+04    0.83824E-02   -0.47811E-03  1584   0.793E-02    0.562E-01
RMM:   7    -0.116460662300E+04    0.12052E-02   -0.98129E-03  1584   0.112E-01    0.211E-01
RMM:   8    -0.116460687337E+04   -0.25038E-03   -0.23719E-03  1549   0.517E-02    0.103E-01
RMM:   9    -0.116460732468E+04   -0.45130E-03   -0.38391E-04  1202   0.227E-02    0.743E-02
RMM:  10    -0.116460735254E+04   -0.27862E-04   -0.14109E-04  1023   0.146E-02
   2 F= -.11716513E+04 E0= -.11716430E+04  d E =0.150834E-01  mag=     0.2882
       N       E                     dE             d eps       ncg     rms          rms(c)
DAV:   1    -0.116462404445E+04   -0.16720E-01   -0.18110E+00  1656   0.221E+00    0.597E-01
RMM:   2    -0.116462860722E+04   -0.45628E-02   -0.54819E-02  1584   0.326E-01    0.608E-01
RMM:   3    -0.116462844372E+04    0.16351E-03   -0.32925E-03  1637   0.647E-02    0.597E-01
RMM:   4    -0.116462776149E+04    0.68223E-03   -0.81678E-04  1519   0.352E-02    0.505E-01
RMM:   5    -0.116462759080E+04    0.17069E-03   -0.85642E-03  1584   0.104E-01    0.254E-01
RMM:   6    -0.116462807309E+04   -0.48230E-03   -0.99606E-04  1516   0.340E-02    0.195E-01
RMM:   7    -0.116462793186E+04    0.14123E-03   -0.54932E-04  1216   0.229E-02    0.128E-01
RMM:   8    -0.116462792359E+04    0.82706E-05   -0.98670E-04  1424   0.303E-02
   3 F= -.11716719E+04 E0= -.11716700E+04  d E =-.555617E-02  mag=     0.0443
       N       E                     dE             d eps       ncg     rms          rms(c)
DAV:   1    -0.116462655220E+04    0.13797E-02   -0.14249E+00  1728   0.195E+00    0.590E-01
RMM:   2    -0.116462980794E+04   -0.32557E-02   -0.44190E-02  1584   0.273E-01    0.570E-01
RMM:   3    -0.116462909836E+04    0.70958E-03   -0.22528E-03  1498   0.533E-02    0.538E-01
RMM:   4    -0.116462786852E+04    0.12298E-02   -0.12873E-03  1588   0.424E-02    0.388E-01
RMM:   5    -0.116462695519E+04    0.91333E-03   -0.43702E-03  1584   0.729E-02    0.125E-01
RMM:   6    -0.116462712722E+04   -0.17203E-03   -0.42967E-04  1276   0.243E-02    0.862E-02
RMM:   7    -0.116462706065E+04    0.66567E-04   -0.19024E-04  1044   0.163E-02
   4 F= -.11716711E+04 E0= -.11716693E+04  d E =0.791678E-03  mag=     0.0428
       N       E                     dE             d eps       ncg     rms          rms(c)
DAV:   1    -0.116462941048E+04   -0.22833E-02   -0.44478E-01  1728   0.109E+00    0.333E-01
RMM:   2    -0.116463027965E+04   -0.86917E-03   -0.13361E-02  1584   0.150E-01    0.328E-01
RMM:   3    -0.116463002871E+04    0.25093E-03   -0.65636E-04  1227   0.292E-02    0.312E-01
RMM:   4    -0.116462953105E+04    0.49767E-03   -0.52901E-04  1463   0.276E-02    0.220E-01
RMM:   5    -0.116462917336E+04    0.35768E-03   -0.15438E-03  1584   0.437E-02    0.721E-02
RMM:   6    -0.116462922298E+04   -0.49619E-04   -0.12393E-04  1040   0.136E-02
   5 F= -.11716732E+04 E0= -.11716713E+04  d E =-.133231E-02  mag=     0.0472
       N       E                     dE             d eps       ncg     rms          rms(c)
DAV:   1    -0.116462900119E+04    0.17218E-03   -0.40682E-01  1728   0.104E+00    0.226E-01
RMM:   2    -0.116462975961E+04   -0.75842E-03   -0.11435E-02  1584   0.155E-01    0.192E-01
RMM:   3    -0.116462953755E+04    0.22206E-03   -0.59070E-04  1266   0.318E-02    0.179E-01
RMM:   4    -0.116462900192E+04    0.53562E-03   -0.10556E-03  1552   0.373E-02    0.109E-01
RMM:   5    -0.116462888291E+04    0.11901E-03   -0.62250E-04  1472   0.282E-02    0.683E-02
RMM:   6    -0.116462890248E+04   -0.19573E-04   -0.14713E-04  1035   0.134E-02
   6 F= -.11716729E+04 E0= -.11716714E+04  d E =0.327801E-03  mag=     0.0341
       N       E                     dE             d eps       ncg     rms          rms(c)
DAV:   1    -0.116463001046E+04   -0.11275E-02   -0.11539E-01  1728   0.553E-01    0.111E-01
RMM:   2    -0.116463024160E+04   -0.23114E-03   -0.33715E-03  1582   0.839E-02    0.940E-02
RMM:   3    -0.116463017887E+04    0.62725E-04   -0.15250E-04  1056   0.171E-02
   7 F= -.11716742E+04 E0= -.11716725E+04  d E =-.952009E-03  mag=     0.0405
