       N       E                     dE             d eps       ncg     rms          rms(c)
DAV:   1     0.471731077039E+04    0.47173E+04   -0.17699E+05  1908   0.917E+02
DAV:   2    -0.124950017106E+03   -0.48423E+04   -0.44393E+04  2556   0.207E+02
DAV:   3    -0.120201710500E+04   -0.10771E+04   -0.10719E+04  2052   0.106E+02
DAV:   4    -0.124524651675E+04   -0.43229E+02   -0.43007E+02  2016   0.283E+01
DAV:   5    -0.124640530801E+04   -0.11588E+01   -0.11555E+01  2340   0.435E+00    0.679E+01
RMM:   6    -0.122792609707E+04    0.18479E+02   -0.22835E+01  1584   0.461E+00    0.506E+01
RMM:   7    -0.120893075480E+04    0.18995E+02   -0.12316E+01  1584   0.404E+00    0.392E+01
RMM:   8    -0.118140136066E+04    0.27529E+02   -0.41671E+01  1584   0.734E+00    0.244E+01
RMM:   9    -0.117580838564E+04    0.55930E+01   -0.23725E+01  1584   0.554E+00    0.144E+01
RMM:  10    -0.117717408699E+04   -0.13657E+01   -0.69521E+00  1586   0.309E+00    0.844E+00
RMM:  11    -0.117677599662E+04    0.39809E+00   -0.32079E-01  1622   0.727E-01    0.637E+00
RMM:  12    -0.117623072792E+04    0.54527E+00   -0.18567E+00  1584   0.151E+00    0.200E+00
RMM:  13    -0.117615762688E+04    0.73101E-01   -0.11777E-01  1596   0.380E-01    0.792E-01
RMM:  14    -0.117615682443E+04    0.80245E-03   -0.46534E-02  1584   0.240E-01    0.414E-01
RMM:  15    -0.117615663441E+04    0.19003E-03   -0.62068E-03  1613   0.996E-02    0.241E-01
RMM:  16    -0.117615605108E+04    0.58333E-03   -0.22020E-03  1586   0.504E-02    0.172E-01
RMM:  17    -0.117615644592E+04   -0.39485E-03   -0.11442E-03  1420   0.354E-02    0.825E-02
RMM:  18    -0.117615652514E+04   -0.79214E-04   -0.98975E-05  1052   0.135E-02
   1 F= -.11833391E+04 E0= -.11833365E+04  d E =-.118334E+04  mag=    -0.9327
       N       E                     dE             d eps       ncg     rms          rms(c)
DAV:   1    -0.117615598852E+04    0.45741E-03   -0.11414E+00  1656   0.151E+00    0.452E-01
RMM:   2    -0.117615863966E+04   -0.26511E-02   -0.33389E-02  1584   0.216E-01    0.447E-01
RMM:   3    -0.117615826135E+04    0.37831E-03   -0.13037E-03  1462   0.396E-02    0.425E-01
RMM:   4    -0.117615747999E+04    0.78137E-03   -0.25647E-03  1584   0.550E-02    0.185E-01
RMM:   5    -0.117615768791E+04   -0.20792E-03   -0.10906E-03  1584   0.367E-02    0.757E-02
RMM:   6    -0.117615754454E+04    0.14336E-03   -0.10812E-04  1036   0.118E-02    0.505E-02
RMM:   7    -0.117615751491E+04    0.29637E-04   -0.13715E-04  1022   0.130E-02
   2 F= -.11833408E+04 E0= -.11833380E+04  d E =-.166965E-02  mag=    -0.9289
       N       E                     dE             d eps       ncg     rms          rms(c)
DAV:   1    -0.117615824661E+04   -0.70207E-03   -0.15125E-01  1692   0.547E-01    0.164E-01
RMM:   2    -0.117615850892E+04   -0.26230E-03   -0.40547E-03  1583   0.767E-02    0.164E-01
RMM:   3    -0.117615844349E+04    0.65424E-04   -0.11724E-04  1046   0.133E-02
   3 F= -.11833415E+04 E0= -.11833387E+04  d E =-.234968E-02  mag=    -0.9297
       N       E                     dE             d eps       ncg     rms          rms(c)
DAV:   1    -0.117615895650E+04   -0.44759E-03   -0.39044E-01  1656   0.857E-01    0.161E-01
RMM:   2    -0.117615970815E+04   -0.75165E-03   -0.83488E-03  1584   0.111E-01    0.157E-01
RMM:   3    -0.117615964058E+04    0.67576E-04   -0.23983E-04  1145   0.200E-02
   4 F= -.11833430E+04 E0= -.11833402E+04  d E =-.148327E-02  mag=    -0.9280
       N       E                     dE             d eps       ncg     rms          rms(c)
DAV:   1    -0.117615937756E+04    0.33059E-03   -0.49718E-02  1728   0.310E-01    0.117E-01
RMM:   2    -0.117615942227E+04   -0.44708E-04   -0.82179E-04  1192   0.349E-02
   5 F= -.11833429E+04 E0= -.11833401E+04  d E =-.137298E-02  mag=    -0.9277
       N       E                     dE             d eps       ncg     rms          rms(c)
DAV:   1    -0.117615986276E+04   -0.48520E-03   -0.10287E-01  1728   0.560E-01    0.908E-02
RMM:   2    -0.117616025523E+04   -0.39246E-03   -0.45176E-03  1584   0.882E-02    0.770E-02
RMM:   3    -0.117616018687E+04    0.68355E-04   -0.13184E-04  1033   0.147E-02
   6 F= -.11833437E+04 E0= -.11833410E+04  d E =-.887742E-03  mag=    -0.9295
       N       E                     dE             d eps       ncg     rms          rms(c)
DAV:   1    -0.117616012423E+04    0.13100E-03   -0.11807E-03  1872   0.590E-02    0.345E-02
RMM:   2    -0.117616012844E+04   -0.42130E-05   -0.58943E-05  1011   0.109E-02
   7 F= -.11833437E+04 E0= -.11833410E+04  d E =-.842295E-03  mag=    -0.9298
