       N       E                     dE             d eps       ncg     rms          rms(c)
DAV:   1     0.477076077350E+04    0.47708E+04   -0.18083E+05  1888   0.959E+02
DAV:   2    -0.681681170903E+02   -0.48389E+04   -0.44401E+04  2464   0.215E+02
DAV:   3    -0.120244145431E+04   -0.11343E+04   -0.11261E+04  1952   0.111E+02
DAV:   4    -0.125131453366E+04   -0.48873E+02   -0.48540E+02  1952   0.307E+01
DAV:   5    -0.125253078903E+04   -0.12163E+01   -0.12127E+01  2272   0.453E+00    0.767E+01
RMM:   6    -0.123497620756E+04    0.17555E+02   -0.47814E+01  1688   0.762E+00    0.566E+01
RMM:   7    -0.122143795273E+04    0.13538E+02   -0.97452E+00  1552   0.429E+00    0.454E+01
RMM:   8    -0.119930064413E+04    0.22137E+02   -0.22829E+01  1592   0.620E+00    0.313E+01
RMM:   9    -0.118251313472E+04    0.16788E+02   -0.32469E+01  1575   0.737E+00    0.205E+01
RMM:  10    -0.118053929141E+04    0.19738E+01   -0.16604E+01  1536   0.552E+00    0.123E+01
RMM:  11    -0.118138205376E+04   -0.84276E+00   -0.27856E+00  1606   0.258E+00    0.760E+00
RMM:  12    -0.118139390316E+04   -0.11849E-01   -0.49566E-01  1875   0.106E+00    0.503E+00
RMM:  13    -0.118087234829E+04    0.52155E+00   -0.14196E+00  1538   0.150E+00    0.259E+00
RMM:  14    -0.118089907188E+04   -0.26724E-01   -0.23111E-01  1580   0.742E-01    0.938E-01
RMM:  15    -0.118089077892E+04    0.82930E-02   -0.23965E-02  1540   0.255E-01    0.499E-01
RMM:  16    -0.118089171875E+04   -0.93983E-03   -0.11206E-02  1603   0.155E-01    0.241E-01
RMM:  17    -0.118089238161E+04   -0.66286E-03   -0.48077E-03  1633   0.102E-01    0.208E-01
RMM:  18    -0.118089205899E+04    0.32261E-03   -0.38173E-03  1538   0.831E-02    0.119E-01
RMM:  19    -0.118089215648E+04   -0.97483E-04   -0.73205E-04  1577   0.400E-02    0.603E-02
RMM:  20    -0.118089214166E+04    0.14818E-04   -0.18683E-04  1572   0.213E-02    0.510E-02
RMM:  21    -0.118089216956E+04   -0.27899E-04   -0.98779E-05  1547   0.137E-02    0.352E-02
RMM:  22    -0.118089217638E+04   -0.68184E-05   -0.65730E-05  1541   0.115E-02    0.238E-02
RMM:  23    -0.118089217992E+04   -0.35413E-05   -0.35660E-05  1544   0.845E-03    0.208E-02
RMM:  24    -0.118089217898E+04    0.93775E-06   -0.16130E-05  1532   0.560E-03    0.897E-03
RMM:  25    -0.118089217718E+04    0.17974E-05   -0.33440E-06  1169   0.282E-03    0.436E-03
RMM:  26    -0.118089217661E+04    0.56974E-06   -0.90309E-07  1019   0.140E-03
   1 F= -.11880165E+04 E0= -.11880165E+04  d E =-.118802E+04  mag=     2.9999
       N       E                     dE             d eps       ncg     rms          rms(c)
DAV:   1    -0.118089021401E+04    0.19632E-02   -0.27441E-01  1664   0.107E+00    0.177E-01
RMM:   2    -0.118089138468E+04   -0.11707E-02   -0.12754E-02  1689   0.169E-01    0.155E-01
RMM:   3    -0.118089164505E+04   -0.26036E-03   -0.31729E-03  1800   0.706E-02    0.125E-01
RMM:   4    -0.118089161023E+04    0.34814E-04   -0.44201E-04  1852   0.284E-02    0.101E-01
RMM:   5    -0.118089157204E+04    0.38192E-04   -0.33650E-04  1564   0.233E-02    0.537E-02
RMM:   6    -0.118089158722E+04   -0.15178E-04   -0.11653E-04  1672   0.150E-02    0.388E-02
RMM:   7    -0.118089158536E+04    0.18591E-05   -0.25373E-05  1559   0.760E-03    0.199E-02
RMM:   8    -0.118089158699E+04   -0.16306E-05   -0.19542E-05  1538   0.533E-03    0.113E-02
RMM:   9    -0.118089158580E+04    0.11890E-05   -0.64293E-06  1556   0.349E-03    0.714E-03
RMM:  10    -0.118089158642E+04   -0.62231E-06   -0.49036E-06  1430   0.278E-03
   2 F= -.11880164E+04 E0= -.11880164E+04  d E =0.129541E-03  mag=     3.0000
       N       E                     dE             d eps       ncg     rms          rms(c)
DAV:   1    -0.118089216693E+04   -0.58113E-03   -0.77707E-02  1760   0.568E-01    0.943E-02
RMM:   2    -0.118089243371E+04   -0.26678E-03   -0.30929E-03  1660   0.870E-02    0.820E-02
RMM:   3    -0.118089248909E+04   -0.55376E-04   -0.74145E-04  1692   0.352E-02    0.651E-02
RMM:   4    -0.118089247967E+04    0.94151E-05   -0.11199E-04  1748   0.145E-02    0.518E-02
RMM:   5    -0.118089247173E+04    0.79478E-05   -0.86918E-05  1577   0.120E-02    0.271E-02
RMM:   6    -0.118089247638E+04   -0.46501E-05   -0.30448E-05  1614   0.768E-03    0.190E-02
RMM:   7    -0.118089247617E+04    0.20658E-06   -0.57241E-06  1487   0.378E-03
   3 F= -.11880170E+04 E0= -.11880170E+04  d E =-.515353E-03  mag=     3.0000
