       N       E                     dE             d eps       ncg     rms          rms(c)
DAV:   1     0.467741268258E+04    0.46774E+04   -0.17392E+05  1908   0.905E+02
DAV:   2    -0.106010639840E+03   -0.47834E+04   -0.43474E+04  2520   0.208E+02
DAV:   3    -0.118857707103E+04   -0.10826E+04   -0.10778E+04  2088   0.107E+02
DAV:   4    -0.123352575935E+04   -0.44949E+02   -0.44687E+02  2052   0.301E+01
DAV:   5    -0.123483798553E+04   -0.13122E+01   -0.13082E+01  2304   0.467E+00    0.698E+01
RMM:   6    -0.121848345138E+04    0.16355E+02   -0.14817E+01  1627   0.428E+00    0.514E+01
RMM:   7    -0.120092887386E+04    0.17555E+02   -0.13307E+01  1589   0.448E+00    0.402E+01
RMM:   8    -0.117435849291E+04    0.26570E+02   -0.43576E+01  1591   0.799E+00    0.250E+01
RMM:   9    -0.117079767619E+04    0.35608E+01   -0.89244E+00  1586   0.423E+00    0.173E+01
RMM:  10    -0.117041164795E+04    0.38603E+00   -0.15451E+01  1584   0.469E+00    0.874E+00
RMM:  11    -0.117058798115E+04   -0.17633E+00   -0.11085E+00  1618   0.228E+00    0.624E+00
RMM:  12    -0.117014445800E+04    0.44352E+00   -0.32752E-01  1586   0.676E-01    0.453E+00
RMM:  13    -0.116984935728E+04    0.29510E+00   -0.11195E+00  1584   0.122E+00    0.123E+00
RMM:  14    -0.116986008826E+04   -0.10731E-01   -0.35381E-02  1617   0.432E-01    0.847E-01
RMM:  15    -0.116986013175E+04   -0.43491E-04   -0.13115E-02  1622   0.131E-01    0.617E-01
RMM:  16    -0.116986039281E+04   -0.26107E-03   -0.64881E-03  1602   0.118E-01    0.458E-01
RMM:  17    -0.116986039806E+04   -0.52463E-05   -0.17128E-03  1600   0.596E-02    0.353E-01
RMM:  18    -0.116986044045E+04   -0.42385E-04   -0.25494E-04  1137   0.295E-02
   1 F= -.11768697E+04 E0= -.11768697E+04  d E =-.117687E+04  mag=     1.0015
       N       E                     dE             d eps       ncg     rms          rms(c)
DAV:   1    -0.116985922142E+04    0.11766E-02   -0.25667E-01  1836   0.926E-01    0.175E-01
RMM:   2    -0.116986019852E+04   -0.97711E-03   -0.11451E-02  1603   0.144E-01    0.162E-01
RMM:   3    -0.116986008037E+04    0.11815E-03   -0.58950E-04  1355   0.498E-02    0.131E-01
RMM:   4    -0.116985992316E+04    0.15720E-03   -0.39542E-04  1363   0.269E-02    0.888E-02
RMM:   5    -0.116985989556E+04    0.27606E-04   -0.45499E-04  1467   0.287E-02
   2 F= -.11768692E+04 E0= -.11768692E+04  d E =0.478040E-03  mag=     0.9999
       N       E                     dE             d eps       ncg     rms          rms(c)
DAV:   1    -0.116986080505E+04   -0.88188E-03   -0.97508E-02  1656   0.567E-01    0.823E-02
RMM:   2    -0.116986109124E+04   -0.28620E-03   -0.34928E-03  1588   0.850E-02    0.733E-02
RMM:   3    -0.116986103700E+04    0.54245E-04   -0.14942E-04  1069   0.271E-02
   3 F= -.11768703E+04 E0= -.11768703E+04  d E =-.621922E-03  mag=     1.0000
