       N       E                     dE             d eps       ncg     rms          rms(c)
DAV:   1     0.468924250600E+04    0.46892E+04   -0.17667E+05  1908   0.915E+02
DAV:   2    -0.127631128111E+03   -0.48169E+04   -0.44134E+04  2556   0.206E+02
DAV:   3    -0.119896784793E+04   -0.10713E+04   -0.10661E+04  2124   0.106E+02
DAV:   4    -0.124064774762E+04   -0.41680E+02   -0.41485E+02  1980   0.274E+01
DAV:   5    -0.124173845860E+04   -0.10907E+01   -0.10880E+01  2340   0.417E+00    0.710E+01
RMM:   6    -0.122306987707E+04    0.18669E+02   -0.18681E+01  1584   0.431E+00    0.514E+01
RMM:   7    -0.120161808605E+04    0.21452E+02   -0.16641E+01  1584   0.468E+00    0.380E+01
RMM:   8    -0.117522210897E+04    0.26396E+02   -0.43104E+01  1584   0.747E+00    0.236E+01
RMM:   9    -0.117245888962E+04    0.27632E+01   -0.23224E+01  1584   0.553E+00    0.119E+01
RMM:  10    -0.117350019006E+04   -0.10413E+01   -0.38387E+00  1596   0.232E+00    0.826E+00
RMM:  11    -0.117288494249E+04    0.61525E+00   -0.69491E-01  1584   0.943E-01    0.444E+00
RMM:  12    -0.117249946334E+04    0.38548E+00   -0.10881E+00  1584   0.114E+00    0.124E+00
RMM:  13    -0.117250358294E+04   -0.41196E-02   -0.12384E-01  1585   0.410E-01    0.598E-01
RMM:  14    -0.117250115989E+04    0.24230E-02   -0.12703E-02  1587   0.136E-01    0.363E-01
RMM:  15    -0.117250075256E+04    0.40733E-03   -0.36748E-03  1590   0.673E-02    0.219E-01
RMM:  16    -0.117250149084E+04   -0.73828E-03   -0.16553E-03  1584   0.511E-02    0.169E-01
RMM:  17    -0.117250141635E+04    0.74487E-04   -0.30547E-04  1155   0.205E-02
   1 F= -.11796532E+04 E0= -.11796532E+04  d E =-.117965E+04  mag=    -0.0010
       N       E                     dE             d eps       ncg     rms          rms(c)
DAV:   1    -0.117240473840E+04    0.96752E-01   -0.12081E+01  1584   0.407E+00    0.376E+00
RMM:   2    -0.117245419248E+04   -0.49454E-01   -0.56258E-01  1584   0.631E-01    0.338E+00
RMM:   3    -0.117244664420E+04    0.75483E-02   -0.19810E-02  1629   0.111E-01    0.221E+00
RMM:   4    -0.117244708743E+04   -0.44322E-03   -0.16656E-02  1586   0.126E-01    0.244E-01
RMM:   5    -0.117244580172E+04    0.12857E-02   -0.11635E-03  1280   0.278E-02    0.249E-01
RMM:   6    -0.117244602401E+04   -0.22229E-03   -0.12276E-04  1067   0.118E-02    0.285E-01
RMM:   7    -0.117244520107E+04    0.82294E-03   -0.26316E-03  1558   0.510E-02    0.141E-01
RMM:   8    -0.117244519582E+04    0.52483E-05   -0.10435E-04  1050   0.126E-02
   2 F= -.11796003E+04 E0= -.11796003E+04  d E =0.529072E-01  mag=     0.0000
       N       E                     dE             d eps       ncg     rms          rms(c)
DAV:   1    -0.117248244599E+04   -0.37245E-01   -0.71419E+00  1584   0.314E+00    0.259E+00
RMM:   2    -0.117251166903E+04   -0.29223E-01   -0.33691E-01  1584   0.496E-01    0.264E+00
RMM:   3    -0.117250932427E+04    0.23448E-02   -0.82848E-03  1443   0.669E-02    0.273E+00
RMM:   4    -0.117250798909E+04    0.13352E-02   -0.13162E-02  1584   0.113E-01    0.574E-01
RMM:   5    -0.117250590948E+04    0.20796E-02   -0.20618E-03  1230   0.352E-02    0.326E-01
RMM:   6    -0.117250575816E+04    0.15132E-03   -0.24773E-04  1090   0.133E-02    0.276E-01
RMM:   7    -0.117250555354E+04    0.20462E-03   -0.10202E-03  1400   0.314E-02    0.164E-01
RMM:   8    -0.117250549939E+04    0.54148E-04   -0.80393E-05  1048   0.941E-03
   3 F= -.11796580E+04 E0= -.11796580E+04  d E =-.486979E-02  mag=     0.0000
