       N       E                     dE             d eps       ncg     rms          rms(c)
DAV:   1     0.480646356611E+04    0.48065E+04   -0.17992E+05  1908   0.931E+02
DAV:   2    -0.867673542290E+02   -0.48932E+04   -0.44858E+04  2520   0.209E+02
DAV:   3    -0.120791255379E+04   -0.11211E+04   -0.11162E+04  2160   0.110E+02
DAV:   4    -0.125187213073E+04   -0.43960E+02   -0.43581E+02  2052   0.281E+01
DAV:   5    -0.125297552214E+04   -0.11034E+01   -0.11002E+01  2340   0.408E+00    0.725E+01
RMM:   6    -0.123346519507E+04    0.19510E+02   -0.18360E+01  1764   0.421E+00    0.553E+01
RMM:   7    -0.120913241152E+04    0.24333E+02   -0.25122E+01  1602   0.565E+00    0.387E+01
RMM:   8    -0.118659444892E+04    0.22538E+02   -0.35634E+01  1587   0.680E+00    0.254E+01
RMM:   9    -0.118290347291E+04    0.36910E+01   -0.29827E+01  1594   0.615E+00    0.123E+01
RMM:  10    -0.118396710630E+04   -0.10636E+01   -0.36142E+00  1655   0.232E+00    0.822E+00
RMM:  11    -0.118322749558E+04    0.73961E+00   -0.10811E+00  1629   0.114E+00    0.397E+00
RMM:  12    -0.118288231346E+04    0.34518E+00   -0.94405E-01  1607   0.104E+00    0.147E+00
RMM:  13    -0.118286440879E+04    0.17905E-01   -0.16422E-01  1699   0.470E-01    0.528E-01
RMM:  14    -0.118286065579E+04    0.37530E-02   -0.16687E-02  1686   0.162E-01    0.352E-01
RMM:  15    -0.118285905435E+04    0.16014E-02   -0.78550E-03  1646   0.101E-01    0.191E-01
RMM:  16    -0.118285944024E+04   -0.38589E-03   -0.17952E-03  1704   0.529E-02    0.121E-01
RMM:  17    -0.118285944002E+04    0.21792E-06   -0.12355E-03  1507   0.361E-02    0.783E-02
RMM:  18    -0.118285945296E+04   -0.12934E-04   -0.18277E-04  1104   0.191E-02
   1 F= -.11902556E+04 E0= -.11902556E+04  d E =-.119026E+04  mag=    -0.0072
       N       E                     dE             d eps       ncg     rms          rms(c)
DAV:   1    -0.118285149318E+04    0.79468E-02   -0.54349E-01  1620   0.121E+00    0.491E-01
RMM:   2    -0.118285719246E+04   -0.56993E-02   -0.63934E-02  1924   0.302E-01    0.448E-01
RMM:   3    -0.118285733044E+04   -0.13798E-03   -0.35350E-03  1477   0.699E-02    0.475E-01
RMM:   4    -0.118285742404E+04   -0.93603E-04   -0.44603E-04  1126   0.194E-02
   2 F= -.11902546E+04 E0= -.11902546E+04  d E =0.101258E-02  mag=     0.0035
       N       E                     dE             d eps       ncg     rms          rms(c)
DAV:   1    -0.118285801517E+04   -0.68473E-03   -0.20907E-01  1656   0.748E-01    0.252E-01
RMM:   2    -0.118285993114E+04   -0.19160E-02   -0.22920E-02  1904   0.191E-01    0.216E-01
RMM:   3    -0.118285989482E+04    0.36318E-04   -0.12036E-03  1261   0.432E-02    0.241E-01
RMM:   4    -0.118285993436E+04   -0.39534E-04   -0.15189E-04  1048   0.132E-02
   3 F= -.11902565E+04 E0= -.11902565E+04  d E =-.887610E-03  mag=    -0.0000
