       N       E                     dE             d eps       ncg     rms          rms(c)
DAV:   1     0.491923098862E+04    0.49192E+04   -0.17133E+05  1836   0.910E+02
DAV:   2    -0.543771319261E+02   -0.49736E+04   -0.45421E+04  2520   0.209E+02
DAV:   3    -0.119132024440E+04   -0.11369E+04   -0.11320E+04  2160   0.109E+02
DAV:   4    -0.123863265078E+04   -0.47312E+02   -0.47073E+02  2052   0.289E+01
DAV:   5    -0.123996590725E+04   -0.13333E+01   -0.13302E+01  2412   0.422E+00    0.697E+01
RMM:   6    -0.122671983184E+04    0.13246E+02   -0.77685E+00  1586   0.309E+00    0.584E+01
RMM:   7    -0.118698535705E+04    0.39734E+02   -0.59290E+01  1586   0.852E+00    0.403E+01
RMM:   8    -0.117668525220E+04    0.10300E+02   -0.15528E+01  1597   0.443E+00    0.340E+01
RMM:   9    -0.117539248531E+04    0.12928E+01   -0.39513E+01  1585   0.706E+00    0.107E+01
RMM:  10    -0.117498208500E+04    0.41040E+00   -0.78595E-01  1662   0.121E+00    0.837E+00
RMM:  11    -0.117406090110E+04    0.92118E+00   -0.17064E+00  1584   0.137E+00    0.347E+00
RMM:  12    -0.117396536929E+04    0.95532E-01   -0.22156E-01  1587   0.526E-01    0.157E+00
RMM:  13    -0.117393383639E+04    0.31533E-01   -0.33401E-01  1586   0.637E-01    0.699E-01
RMM:  14    -0.117392065896E+04    0.13177E-01   -0.17669E-02  1607   0.151E-01    0.324E-01
RMM:  15    -0.117391962585E+04    0.10331E-02   -0.21460E-03  1591   0.431E-02    0.261E-01
RMM:  16    -0.117391948767E+04    0.13818E-03   -0.13588E-03  1588   0.372E-02    0.174E-01
RMM:  17    -0.117391929560E+04    0.19207E-03   -0.12625E-03  1509   0.346E-02    0.954E-02
RMM:  18    -0.117391938851E+04   -0.92910E-04   -0.46601E-04  1297   0.256E-02
   1 F= -.11810505E+04 E0= -.11810505E+04  d E =-.118105E+04  mag=     1.9994
       N       E                     dE             d eps       ncg     rms          rms(c)
DAV:   1    -0.117391649058E+04    0.28050E-02   -0.99781E-01  1656   0.120E+00    0.124E+00
RMM:   2    -0.117391898739E+04   -0.24968E-02   -0.37678E-02  1589   0.182E-01    0.120E+00
RMM:   3    -0.117391783893E+04    0.11485E-02   -0.20173E-03  1512   0.429E-02    0.100E+00
RMM:   4    -0.117391762417E+04    0.21476E-03   -0.74916E-03  1584   0.808E-02    0.243E-01
RMM:   5    -0.117391720097E+04    0.42320E-03   -0.64729E-04  1131   0.225E-02    0.110E-01
RMM:   6    -0.117391714357E+04    0.57398E-04   -0.38377E-04  1077   0.158E-02
   2 F= -.11810490E+04 E0= -.11810490E+04  d E =0.156546E-02  mag=     2.0001
       N       E                     dE             d eps       ncg     rms          rms(c)
DAV:   1    -0.117392070024E+04   -0.34993E-02   -0.37320E-01  1692   0.734E-01    0.768E-01
RMM:   2    -0.117392138784E+04   -0.68759E-03   -0.12971E-02  1586   0.105E-01    0.753E-01
RMM:   3    -0.117392081915E+04    0.56869E-03   -0.51827E-04  1138   0.233E-02    0.637E-01
RMM:   4    -0.117392060982E+04    0.20932E-03   -0.36562E-03  1584   0.556E-02    0.164E-01
RMM:   5    -0.117392043928E+04    0.17054E-03   -0.32643E-04  1070   0.162E-02    0.704E-02
RMM:   6    -0.117392041828E+04    0.21000E-04   -0.14638E-04  1041   0.105E-02
   3 F= -.11810518E+04 E0= -.11810518E+04  d E =-.129161E-02  mag=     2.0000
       N       E                     dE             d eps       ncg     rms          rms(c)
DAV:   1    -0.117392125354E+04   -0.81426E-03   -0.27252E-01  1656   0.729E-01    0.540E-01
RMM:   2    -0.117392179023E+04   -0.53668E-03   -0.96035E-03  1591   0.988E-02    0.513E-01
RMM:   3    -0.117392123225E+04    0.55798E-03   -0.58211E-04  1284   0.281E-02    0.415E-01
RMM:   4    -0.117392121574E+04    0.16509E-04   -0.45041E-03  1584   0.682E-02    0.110E-01
RMM:   5    -0.117392096236E+04    0.25337E-03   -0.46095E-04  1085   0.205E-02    0.682E-02
RMM:   6    -0.117392096965E+04   -0.72856E-05   -0.82706E-05  1031   0.918E-03
   4 F= -.11810531E+04 E0= -.11810531E+04  d E =-.123327E-02  mag=     2.0000
       N       E                     dE             d eps       ncg     rms          rms(c)
DAV:   1    -0.117392133920E+04   -0.37684E-03   -0.21015E-02  1656   0.204E-01    0.149E-01
RMM:   2    -0.117392136557E+04   -0.26371E-04   -0.79890E-04  1145   0.290E-02
   5 F= -.11810533E+04 E0= -.11810533E+04  d E =-.143877E-02  mag=     2.0000
       N       E                     dE             d eps       ncg     rms          rms(c)
DAV:   1    -0.117392164116E+04   -0.30195E-03   -0.29553E-01  1728   0.757E-01    0.449E-01
RMM:   2    -0.117392214854E+04   -0.50738E-03   -0.69608E-03  1591   0.968E-02    0.435E-01
RMM:   3    -0.117392199313E+04    0.15541E-03   -0.25691E-04  1122   0.204E-02    0.373E-01
RMM:   4    -0.117392201783E+04   -0.24697E-04   -0.15160E-03  1545   0.389E-02    0.748E-02
RMM:   5    -0.117392195078E+04    0.67046E-04   -0.49623E-05  1015   0.926E-03
   6 F= -.11810541E+04 E0= -.11810541E+04  d E =-.823485E-03  mag=     2.0000
       N       E                     dE             d eps       ncg     rms          rms(c)
DAV:   1    -0.117392196206E+04    0.55764E-04   -0.44650E-03  1800   0.944E-02    0.664E-02
RMM:   2    -0.117392196452E+04   -0.24625E-05   -0.88740E-05  1004   0.111E-02
   7 F= -.11810541E+04 E0= -.11810541E+04  d E =-.806627E-03  mag=     2.0000
