       N       E                     dE             d eps       ncg     rms          rms(c)
DAV:   1     0.481491468767E+04    0.48149E+04   -0.18040E+05  1908   0.933E+02
DAV:   2    -0.900461542641E+02   -0.49050E+04   -0.45090E+04  2592   0.210E+02
DAV:   3    -0.120098808526E+04   -0.11109E+04   -0.11049E+04  2088   0.108E+02
DAV:   4    -0.124586806805E+04   -0.44880E+02   -0.44596E+02  2016   0.284E+01
DAV:   5    -0.124696176221E+04   -0.10937E+01   -0.10908E+01  2340   0.403E+00    0.675E+01
RMM:   6    -0.123257117682E+04    0.14391E+02   -0.35308E+01  1589   0.575E+00    0.559E+01
RMM:   7    -0.121741302402E+04    0.15158E+02   -0.73753E+00  1584   0.306E+00    0.433E+01
RMM:   8    -0.119357359258E+04    0.23839E+02   -0.24684E+01  1584   0.578E+00    0.296E+01
RMM:   9    -0.117939666327E+04    0.14177E+02   -0.23247E+01  1584   0.556E+00    0.205E+01
RMM:  10    -0.117917536796E+04    0.22130E+00   -0.21227E+01  1584   0.523E+00    0.973E+00
RMM:  11    -0.117908603929E+04    0.89329E-01   -0.12439E+00  1621   0.143E+00    0.698E+00
RMM:  12    -0.117866318817E+04    0.42285E+00   -0.53300E-01  1584   0.761E-01    0.471E+00
RMM:  13    -0.117833164039E+04    0.33155E+00   -0.10458E+00  1584   0.117E+00    0.131E+00
RMM:  14    -0.117829662106E+04    0.35019E-01   -0.82491E-02  1596   0.330E-01    0.781E-01
RMM:  15    -0.117829450481E+04    0.21163E-02   -0.13700E-02  1620   0.127E-01    0.399E-01
RMM:  16    -0.117829460191E+04   -0.97098E-04   -0.63693E-03  1584   0.949E-02    0.184E-01
RMM:  17    -0.117829426913E+04    0.33278E-03   -0.10899E-03  1497   0.404E-02    0.118E-01
RMM:  18    -0.117829436712E+04   -0.97986E-04   -0.39612E-04  1164   0.244E-02
   1 F= -.11855226E+04 E0= -.11855226E+04  d E =-.118552E+04  mag=     1.0013
       N       E                     dE             d eps       ncg     rms          rms(c)
DAV:   1    -0.117828622893E+04    0.80402E-02   -0.22897E+00  1692   0.257E+00    0.589E-01
RMM:   2    -0.117829816466E+04   -0.11936E-01   -0.13540E-01  1586   0.446E-01    0.564E-01
RMM:   3    -0.117829502883E+04    0.31358E-02   -0.44454E-03  1810   0.812E-02    0.525E-01
RMM:   4    -0.117829445646E+04    0.57237E-03   -0.47833E-03  1584   0.771E-02    0.212E-01
RMM:   5    -0.117829461683E+04   -0.16037E-03   -0.90855E-04  1584   0.355E-02    0.118E-01
RMM:   6    -0.117829451913E+04    0.97702E-04   -0.18245E-04  1050   0.156E-02
   2 F= -.11855235E+04 E0= -.11855235E+04  d E =-.931674E-03  mag=     1.0001
       N       E                     dE             d eps       ncg     rms          rms(c)
DAV:   1    -0.117829596845E+04   -0.13516E-02   -0.45959E-01  1692   0.116E+00    0.264E-01
RMM:   2    -0.117829816398E+04   -0.21955E-02   -0.25599E-02  1586   0.193E-01    0.257E-01
RMM:   3    -0.117829750355E+04    0.66043E-03   -0.76463E-04  1250   0.338E-02    0.240E-01
RMM:   4    -0.117829729204E+04    0.21150E-03   -0.12547E-03  1577   0.405E-02    0.870E-02
RMM:   5    -0.117829732088E+04   -0.28832E-04   -0.15866E-04  1053   0.165E-02
   3 F= -.11855260E+04 E0= -.11855260E+04  d E =-.337976E-02  mag=     1.0000
       N       E                     dE             d eps       ncg     rms          rms(c)
DAV:   1    -0.117829512084E+04    0.21712E-02   -0.12391E+00  1656   0.173E+00    0.396E-01
RMM:   2    -0.117829834747E+04   -0.32266E-02   -0.42532E-02  1590   0.267E-01    0.352E-01
RMM:   3    -0.117829713719E+04    0.12103E-02   -0.14105E-03  1513   0.497E-02    0.307E-01
RMM:   4    -0.117829652790E+04    0.60928E-03   -0.34299E-03  1584   0.657E-02    0.116E-01
RMM:   5    -0.117829658125E+04   -0.53350E-04   -0.32614E-04  1195   0.228E-02
   4 F= -.11855258E+04 E0= -.11855258E+04  d E =0.176950E-03  mag=     1.0000
       N       E                     dE             d eps       ncg     rms          rms(c)
DAV:   1    -0.117829815808E+04   -0.16302E-02   -0.34773E-01  1728   0.922E-01    0.205E-01
RMM:   2    -0.117829896140E+04   -0.80331E-03   -0.11733E-02  1589   0.140E-01    0.183E-01
RMM:   3    -0.117829854771E+04    0.41369E-03   -0.38610E-04  1169   0.269E-02    0.158E-01
RMM:   4    -0.117829827549E+04    0.27222E-03   -0.14548E-03  1582   0.424E-02    0.625E-02
RMM:   5    -0.117829828654E+04   -0.11054E-04   -0.93969E-05  1012   0.132E-02
   5 F= -.11855272E+04 E0= -.11855272E+04  d E =-.123071E-02  mag=     1.0000
       N       E                     dE             d eps       ncg     rms          rms(c)
DAV:   1    -0.117829812101E+04    0.15448E-03   -0.56980E-01  1728   0.114E+00    0.201E-01
RMM:   2    -0.117829935439E+04   -0.12334E-02   -0.15879E-02  1592   0.167E-01    0.160E-01
RMM:   3    -0.117829891542E+04    0.43897E-03   -0.54940E-04  1276   0.326E-02    0.132E-01
RMM:   4    -0.117829877381E+04    0.14161E-03   -0.12218E-03  1549   0.388E-02    0.550E-02
RMM:   5    -0.117829878201E+04   -0.81969E-05   -0.64233E-05  1016   0.114E-02
   6 F= -.11855282E+04 E0= -.11855282E+04  d E =-.945486E-03  mag=     1.0000
       N       E                     dE             d eps       ncg     rms          rms(c)
DAV:   1    -0.117829897457E+04   -0.20076E-03   -0.28261E-02  1728   0.255E-01    0.447E-02
RMM:   2    -0.117829902336E+04   -0.48792E-04   -0.71359E-04  1206   0.359E-02
   7 F= -.11855283E+04 E0= -.11855283E+04  d E =-.108678E-02  mag=     1.0000
       N       E                     dE             d eps       ncg     rms          rms(c)
DAV:   1    -0.117829874448E+04    0.23009E-03   -0.33399E-01  1728   0.879E-01    0.130E-01
RMM:   2    -0.117829967994E+04   -0.93546E-03   -0.10742E-02  1602   0.132E-01    0.989E-02
RMM:   3    -0.117829944310E+04    0.23684E-03   -0.33936E-04  1153   0.253E-02    0.833E-02
RMM:   4    -0.117829946777E+04   -0.24665E-04   -0.35643E-04  1275   0.229E-02
   8 F= -.11855291E+04 E0= -.11855291E+04  d E =-.787094E-03  mag=     1.0000
       N       E                     dE             d eps       ncg     rms          rms(c)
DAV:   1    -0.117829929972E+04    0.14338E-03   -0.48745E-02  1728   0.337E-01    0.682E-02
RMM:   2    -0.117829941058E+04   -0.11086E-03   -0.15829E-03  1402   0.515E-02    0.564E-02
RMM:   3    -0.117829938771E+04    0.22870E-04   -0.54838E-05   989   0.120E-02
   9 F= -.11855291E+04 E0= -.11855291E+04  d E =-.839025E-03  mag=     1.0000
