       N       E                     dE             d eps       ncg     rms          rms(c)
DAV:   1     0.506445042685E+04    0.50645E+04   -0.17522E+05  1836   0.932E+02
DAV:   2     0.241145594155E+00   -0.50642E+04   -0.46488E+04  2520   0.212E+02
DAV:   3    -0.119030861794E+04   -0.11905E+04   -0.11828E+04  2088   0.113E+02
DAV:   4    -0.123923732971E+04   -0.48929E+02   -0.48631E+02  2016   0.305E+01
DAV:   5    -0.124042520585E+04   -0.11879E+01   -0.11843E+01  2304   0.434E+00    0.673E+01
RMM:   6    -0.122679430601E+04    0.13631E+02   -0.42970E+01  1585   0.611E+00    0.569E+01
RMM:   7    -0.121374353835E+04    0.13051E+02   -0.46015E+00  1584   0.258E+00    0.481E+01
RMM:   8    -0.117998485556E+04    0.33759E+02   -0.56879E+01  1584   0.861E+00    0.263E+01
RMM:   9    -0.117394486202E+04    0.60400E+01   -0.80789E+00  1584   0.337E+00    0.207E+01
RMM:  10    -0.117157370870E+04    0.23712E+01   -0.79449E+00  1584   0.326E+00    0.134E+01
RMM:  11    -0.117233752830E+04   -0.76382E+00   -0.62576E+00  1584   0.290E+00    0.700E+00
RMM:  12    -0.117188092140E+04    0.45661E+00   -0.12349E+00  1584   0.122E+00    0.605E+00
RMM:  13    -0.117162566271E+04    0.25526E+00   -0.45660E-01  1584   0.673E-01    0.247E+00
RMM:  14    -0.117159623294E+04    0.29430E-01   -0.42099E-02  1590   0.229E-01    0.186E+00
RMM:  15    -0.117153548114E+04    0.60752E-01   -0.86596E-02  1584   0.277E-01    0.640E-01
RMM:  16    -0.117153773559E+04   -0.22544E-02   -0.71200E-03  1604   0.970E-02    0.573E-01
RMM:  17    -0.117153793544E+04   -0.19985E-03   -0.44127E-03  1586   0.720E-02    0.486E-01
RMM:  18    -0.117153567944E+04    0.22560E-02   -0.24195E-03  1439   0.484E-02    0.251E-01
RMM:  19    -0.117153575729E+04   -0.77857E-04   -0.55857E-04  1231   0.241E-02
   1 F= -.11788986E+04 E0= -.11788986E+04  d E =-.117890E+04  mag=     0.0084
       N       E                     dE             d eps       ncg     rms          rms(c)
DAV:   1    -0.117153030932E+04    0.53701E-02   -0.16883E+00  1692   0.176E+00    0.574E-01
RMM:   2    -0.117153262411E+04   -0.23148E-02   -0.47700E-02  1590   0.264E-01    0.379E-01
RMM:   3    -0.117153233142E+04    0.29269E-03   -0.21958E-03  1584   0.528E-02    0.353E-01
RMM:   4    -0.117153217963E+04    0.15179E-03   -0.85511E-04  1490   0.340E-02    0.266E-01
RMM:   5    -0.117153237228E+04   -0.19265E-03   -0.86460E-04  1499   0.345E-02    0.141E-01
RMM:   6    -0.117153251847E+04   -0.14619E-03   -0.25716E-04  1105   0.194E-02    0.442E-02
RMM:   7    -0.117153250796E+04    0.10510E-04   -0.51460E-05  1002   0.961E-03
   2 F= -.11788960E+04 E0= -.11788960E+04  d E =0.261614E-02  mag=     0.0003
       N       E                     dE             d eps       ncg     rms          rms(c)
DAV:   1    -0.117153629540E+04   -0.37769E-02   -0.61254E-01  1656   0.106E+00    0.340E-01
RMM:   2    -0.117153699061E+04   -0.69521E-03   -0.15482E-02  1590   0.152E-01    0.233E-01
RMM:   3    -0.117153684705E+04    0.14356E-03   -0.62538E-04  1210   0.286E-02    0.228E-01
RMM:   4    -0.117153679869E+04    0.48355E-04   -0.19365E-04  1067   0.184E-02
   3 F= -.11788999E+04 E0= -.11788999E+04  d E =-.129118E-02  mag=    -0.0001
       N       E                     dE             d eps       ncg     rms          rms(c)
DAV:   1    -0.117153706867E+04   -0.22162E-03   -0.92479E-01  1656   0.119E+00    0.302E-01
RMM:   2    -0.117153835673E+04   -0.12881E-02   -0.18494E-02  1584   0.157E-01    0.265E-01
RMM:   3    -0.117153824909E+04    0.10764E-03   -0.68145E-04  1197   0.287E-02    0.236E-01
RMM:   4    -0.117153826216E+04   -0.13062E-04   -0.43719E-04  1282   0.251E-02
   4 F= -.11789017E+04 E0= -.11789017E+04  d E =-.179591E-02  mag=     0.0000
       N       E                     dE             d eps       ncg     rms          rms(c)
DAV:   1    -0.117153846765E+04   -0.21855E-03   -0.10958E-03  1728   0.447E-02    0.562E-02
RMM:   2    -0.117153843528E+04    0.32370E-04   -0.54956E-05  1002   0.117E-02
   5 F= -.11789019E+04 E0= -.11789019E+04  d E =-.197920E-02  mag=    -0.0000
       N       E                     dE             d eps       ncg     rms          rms(c)
DAV:   1    -0.117153962231E+04   -0.11547E-02   -0.62371E-01  1728   0.106E+00    0.226E-01
RMM:   2    -0.117154033666E+04   -0.71434E-03   -0.13863E-02  1584   0.148E-01    0.189E-01
RMM:   3    -0.117154017248E+04    0.16417E-03   -0.47714E-04  1198   0.277E-02    0.157E-01
RMM:   4    -0.117154015409E+04    0.18393E-04   -0.50772E-04  1280   0.263E-02
   6 F= -.11789033E+04 E0= -.11789033E+04  d E =-.140713E-02  mag=     0.0000
       N       E                     dE             d eps       ncg     rms          rms(c)
DAV:   1    -0.117154025610E+04   -0.83618E-04   -0.62452E-04  1656   0.365E-02    0.590E-02
RMM:   2    -0.117154026239E+04   -0.62871E-05   -0.37742E-05   999   0.918E-03
   7 F= -.11789034E+04 E0= -.11789034E+04  d E =-.152190E-02  mag=    -0.0000
       N       E                     dE             d eps       ncg     rms          rms(c)
DAV:   1    -0.117154164349E+04   -0.13874E-02   -0.25360E-01  1728   0.632E-01    0.146E-01
RMM:   2    -0.117154181554E+04   -0.17205E-03   -0.48791E-03  1580   0.852E-02    0.118E-01
RMM:   3    -0.117154177878E+04    0.36761E-04   -0.18060E-04  1046   0.173E-02
   8 F= -.11789048E+04 E0= -.11789048E+04  d E =-.139208E-02  mag=     0.0000
       N       E                     dE             d eps       ncg     rms          rms(c)
DAV:   1    -0.117154042245E+04    0.13931E-02   -0.22580E+00  1584   0.188E+00    0.395E-01
RMM:   2    -0.117154304790E+04   -0.26254E-02   -0.42705E-02  1584   0.249E-01    0.315E-01
RMM:   3    -0.117154272314E+04    0.32476E-03   -0.16681E-03  1470   0.490E-02    0.260E-01
RMM:   4    -0.117154326635E+04   -0.54321E-03   -0.30066E-03  1584   0.633E-02    0.775E-02
RMM:   5    -0.117154343032E+04   -0.16397E-03   -0.17616E-04  1096   0.174E-02    0.573E-02
RMM:   6    -0.117154338436E+04    0.45961E-04   -0.10583E-04  1025   0.120E-02
   9 F= -.11789061E+04 E0= -.11789060E+04  d E =-.263163E-02  mag=     0.0000
       N       E                     dE             d eps       ncg     rms          rms(c)
DAV:   1    -0.117154595231E+04   -0.25220E-02   -0.34665E-01  1656   0.911E-01    0.185E-01
RMM:   2    -0.117154645235E+04   -0.50004E-03   -0.10021E-02  1584   0.141E-01    0.162E-01
RMM:   3    -0.117154621135E+04    0.24100E-03   -0.38339E-04  1184   0.260E-02    0.145E-01
RMM:   4    -0.117154591435E+04    0.29700E-03   -0.12498E-03  1578   0.406E-02    0.725E-02
RMM:   5    -0.117154595001E+04   -0.35660E-04   -0.24572E-04  1122   0.196E-02
  10 F= -.11789087E+04 E0= -.11789087E+04  d E =-.262052E-02  mag=     0.0000
       N       E                     dE             d eps       ncg     rms          rms(c)
DAV:   1    -0.117154596716E+04   -0.52808E-04   -0.77852E-04  1728   0.457E-02    0.273E-02
RMM:   2    -0.117154597899E+04   -0.11834E-04   -0.39092E-05   986   0.988E-03
  11 F= -.11789087E+04 E0= -.11789087E+04  d E =-.264672E-02  mag=    -0.0000
       N       E                     dE             d eps       ncg     rms          rms(c)
DAV:   1    -0.117154676576E+04   -0.79860E-03   -0.97972E-02  1656   0.456E-01    0.993E-02
RMM:   2    -0.117154680516E+04   -0.39406E-04   -0.24692E-03  1584   0.657E-02    0.778E-02
RMM:   3    -0.117154676327E+04    0.41891E-04   -0.77497E-05  1012   0.123E-02
  12 F= -.11789095E+04 E0= -.11789095E+04  d E =-.814657E-03  mag=    -0.0000
       N       E                     dE             d eps       ncg     rms          rms(c)
DAV:   1    -0.117154676554E+04    0.39629E-04   -0.52555E-02  1728   0.333E-01    0.102E-01
RMM:   2    -0.117154670677E+04    0.58768E-04   -0.12548E-03  1400   0.455E-02    0.856E-02
RMM:   3    -0.117154667673E+04    0.30036E-04   -0.55942E-05  1002   0.110E-02
  13 F= -.11789095E+04 E0= -.11789094E+04  d E =-.752723E-03  mag=    -0.0000
