       N       E                     dE             d eps       ncg     rms          rms(c)
DAV:   1     0.461440842182E+04    0.46144E+04   -0.17683E+05  1888   0.939E+02
DAV:   2    -0.958844269236E+02   -0.47103E+04   -0.42866E+04  2400   0.208E+02
DAV:   3    -0.119472745673E+04   -0.10988E+04   -0.10940E+04  2016   0.109E+02
DAV:   4    -0.123991520184E+04   -0.45188E+02   -0.44938E+02  1920   0.295E+01
DAV:   5    -0.124109699276E+04   -0.11818E+01   -0.11798E+01  2336   0.449E+00    0.741E+01
RMM:   6    -0.122822305589E+04    0.12874E+02   -0.82350E+00  1555   0.341E+00    0.587E+01
RMM:   7    -0.118785555301E+04    0.40368E+02   -0.82959E+01  1607   0.106E+01    0.298E+01
RMM:   8    -0.117983378163E+04    0.80218E+01   -0.23711E+01  1559   0.664E+00    0.218E+01
RMM:   9    -0.117811648279E+04    0.17173E+01   -0.24283E+01  1549   0.631E+00    0.131E+01
RMM:  10    -0.117808893149E+04    0.27551E-01   -0.57733E+00  1560   0.344E+00    0.723E+00
RMM:  11    -0.117783480808E+04    0.25412E+00   -0.98496E-01  1606   0.135E+00    0.658E+00
RMM:  12    -0.117728704443E+04    0.54776E+00   -0.33924E+00  1596   0.197E+00    0.483E+00
RMM:  13    -0.117691886425E+04    0.36818E+00   -0.74618E-01  1566   0.112E+00    0.177E+00
RMM:  14    -0.117687043721E+04    0.48427E-01   -0.22265E-01  1552   0.504E-01    0.758E-01
RMM:  15    -0.117687140170E+04   -0.96448E-03   -0.28001E-02  1600   0.211E-01    0.506E-01
RMM:  16    -0.117687387204E+04   -0.24703E-02   -0.12630E-02  1572   0.145E-01    0.323E-01
RMM:  17    -0.117687334044E+04    0.53160E-03   -0.52902E-03  1668   0.894E-02    0.194E-01
RMM:  18    -0.117687309229E+04    0.24815E-03   -0.18288E-03  1605   0.507E-02    0.119E-01
RMM:  19    -0.117687301830E+04    0.73981E-04   -0.70260E-04  1660   0.290E-02    0.843E-02
RMM:  20    -0.117687301407E+04    0.42346E-05   -0.20801E-04  1788   0.147E-02    0.641E-02
RMM:  21    -0.117687300382E+04    0.10253E-04   -0.95987E-05  1620   0.954E-03    0.613E-02
RMM:  22    -0.117687299772E+04    0.60933E-05   -0.10545E-04  1595   0.112E-02    0.432E-02
RMM:  23    -0.117687299335E+04    0.43714E-05   -0.39900E-05  1611   0.612E-03    0.249E-02
RMM:  24    -0.117687299276E+04    0.59448E-06   -0.29015E-05  1576   0.512E-03    0.170E-02
RMM:  25    -0.117687299022E+04    0.25347E-05   -0.14128E-05  1475   0.308E-03    0.137E-02
RMM:  26    -0.117687299072E+04   -0.50108E-06   -0.76177E-06  1144   0.154E-03
   1 F= -.11842014E+04 E0= -.11842014E+04  d E =-.118420E+04  mag=    -0.0004
       N       E                     dE             d eps       ncg     rms          rms(c)
DAV:   1    -0.117686532641E+04    0.76638E-02   -0.60335E-01  1856   0.136E+00    0.332E-01
RMM:   2    -0.117686949627E+04   -0.41699E-02   -0.47201E-02  1750   0.270E-01    0.279E-01
RMM:   3    -0.117687006640E+04   -0.57013E-03   -0.89423E-03  1771   0.111E-01    0.248E-01
RMM:   4    -0.117687002588E+04    0.40518E-04   -0.25555E-03  1732   0.568E-02    0.162E-01
RMM:   5    -0.117687006944E+04   -0.43557E-04   -0.65221E-04  1665   0.328E-02    0.760E-02
RMM:   6    -0.117687003513E+04    0.34302E-04   -0.10789E-04  1653   0.146E-02    0.407E-02
RMM:   7    -0.117687003086E+04    0.42779E-05   -0.98152E-05  1586   0.113E-02    0.237E-02
RMM:   8    -0.117687002738E+04    0.34808E-05   -0.17191E-05  1569   0.575E-03    0.160E-02
RMM:   9    -0.117687002782E+04   -0.44641E-06   -0.15018E-05  1585   0.478E-03    0.768E-03
RMM:  10    -0.117687002713E+04    0.68711E-06   -0.26889E-06  1128   0.222E-03
   2 F= -.11842009E+04 E0= -.11842009E+04  d E =0.499515E-03  mag=     0.0000
       N       E                     dE             d eps       ncg     rms          rms(c)
DAV:   1    -0.117687207087E+04   -0.20430E-02   -0.16847E-01  1792   0.737E-01    0.178E-01
RMM:   2    -0.117687307391E+04   -0.10030E-02   -0.11652E-02  1735   0.141E-01    0.150E-01
RMM:   3    -0.117687315359E+04   -0.79672E-04   -0.19073E-03  1693   0.559E-02    0.131E-01
RMM:   4    -0.117687313209E+04    0.21495E-04   -0.72192E-04  1694   0.321E-02    0.802E-02
RMM:   5    -0.117687313856E+04   -0.64721E-05   -0.14659E-04  1761   0.164E-02    0.427E-02
RMM:   6    -0.117687312932E+04    0.92419E-05   -0.31680E-05  1561   0.735E-03    0.223E-02
RMM:   7    -0.117687312805E+04    0.12659E-05   -0.24292E-05  1564   0.567E-03    0.119E-02
RMM:   8    -0.117687312721E+04    0.84814E-06   -0.42558E-06  1264   0.288E-03
   3 F= -.11842026E+04 E0= -.11842026E+04  d E =-.126195E-02  mag=    -0.0000
       N       E                     dE             d eps       ncg     rms          rms(c)
DAV:   1    -0.117687053062E+04    0.25974E-02   -0.41090E-01  1824   0.114E+00    0.257E-01
RMM:   2    -0.117687272913E+04   -0.21985E-02   -0.25758E-02  1735   0.209E-01    0.209E-01
RMM:   3    -0.117687283169E+04   -0.10256E-03   -0.39457E-03  1682   0.837E-02    0.159E-01
RMM:   4    -0.117687275710E+04    0.74594E-04   -0.17198E-03  1638   0.507E-02    0.872E-02
RMM:   5    -0.117687276842E+04   -0.11321E-04   -0.32329E-04  1705   0.248E-02    0.629E-02
RMM:   6    -0.117687275853E+04    0.98876E-05   -0.83318E-05  1575   0.118E-02    0.395E-02
RMM:   7    -0.117687275159E+04    0.69408E-05   -0.53325E-05  1575   0.874E-03    0.153E-02
RMM:   8    -0.117687275131E+04    0.28384E-06   -0.13756E-05  1615   0.481E-03    0.110E-02
RMM:   9    -0.117687274960E+04    0.17021E-05   -0.67599E-06  1438   0.306E-03    0.464E-03
RMM:  10    -0.117687274952E+04    0.80356E-07   -0.10926E-06  1041   0.152E-03
   4 F= -.11842033E+04 E0= -.11842033E+04  d E =-.651862E-03  mag=    -0.0000
       N       E                     dE             d eps       ncg     rms          rms(c)
DAV:   1    -0.117687315963E+04   -0.41002E-03   -0.53232E-02  1664   0.410E-01    0.916E-02
RMM:   2    -0.117687342286E+04   -0.26324E-03   -0.31037E-03  1729   0.747E-02    0.745E-02
RMM:   3    -0.117687343233E+04   -0.94655E-05   -0.48356E-04  1672   0.298E-02    0.567E-02
RMM:   4    -0.117687342156E+04    0.10770E-04   -0.22977E-04  1642   0.183E-02    0.311E-02
RMM:   5    -0.117687342214E+04   -0.58025E-06   -0.36762E-05  1679   0.851E-03    0.225E-02
RMM:   6    -0.117687342092E+04    0.12185E-05   -0.87859E-06  1471   0.405E-03    0.140E-02
RMM:   7    -0.117687342022E+04    0.70272E-06   -0.76191E-06  1484   0.330E-03
   5 F= -.11842036E+04 E0= -.11842036E+04  d E =-.948613E-03  mag=    -0.0000
       N       E                     dE             d eps       ncg     rms          rms(c)
DAV:   1    -0.117687357085E+04   -0.14993E-03   -0.25438E-01  1696   0.842E-01    0.123E-01
RMM:   2    -0.117687389724E+04   -0.32639E-03   -0.44835E-03  1642   0.113E-01    0.112E-01
RMM:   3    -0.117687388361E+04    0.13625E-04   -0.93483E-04  1610   0.490E-02    0.961E-02
RMM:   4    -0.117687382461E+04    0.59001E-04   -0.53568E-04  1592   0.321E-02    0.434E-02
RMM:   5    -0.117687383274E+04   -0.81268E-05   -0.10472E-04  1740   0.149E-02    0.268E-02
RMM:   6    -0.117687382588E+04    0.68610E-05   -0.25355E-05  1531   0.675E-03    0.143E-02
RMM:   7    -0.117687382639E+04   -0.51114E-06   -0.11516E-05  1557   0.427E-03    0.822E-03
RMM:   8    -0.117687382641E+04   -0.25022E-07   -0.57379E-06  1426   0.306E-03
   6 F= -.11842043E+04 E0= -.11842043E+04  d E =-.706348E-03  mag=     0.0000
       N       E                     dE             d eps       ncg     rms          rms(c)
DAV:   1    -0.117687385834E+04   -0.31949E-04   -0.22559E-03  1792   0.795E-02    0.119E-02
RMM:   2    -0.117687386165E+04   -0.33109E-05   -0.41793E-05  1640   0.110E-02    0.108E-02
RMM:   3    -0.117687386167E+04   -0.20897E-07   -0.85519E-06  1473   0.475E-03
   7 F= -.11842043E+04 E0= -.11842043E+04  d E =-.713007E-03  mag=    -0.0000
       N       E                     dE             d eps       ncg     rms          rms(c)
DAV:   1    -0.117687427924E+04   -0.41759E-03   -0.14210E-01  1664   0.619E-01    0.734E-02
RMM:   2    -0.117687443390E+04   -0.15466E-03   -0.21340E-03  1619   0.788E-02    0.675E-02
RMM:   3    -0.117687443901E+04   -0.51163E-05   -0.46322E-04  1624   0.346E-02    0.581E-02
RMM:   4    -0.117687442338E+04    0.15632E-04   -0.23734E-04  1596   0.217E-02    0.254E-02
RMM:   5    -0.117687442874E+04   -0.53569E-05   -0.47324E-05  1681   0.987E-03    0.146E-02
RMM:   6    -0.117687442617E+04    0.25660E-05   -0.95357E-06  1486   0.429E-03    0.885E-03
RMM:   7    -0.117687442639E+04   -0.21942E-06   -0.38466E-06  1287   0.260E-03
   8 F= -.11842049E+04 E0= -.11842049E+04  d E =-.630104E-03  mag=    -0.0000
