       N       E                     dE             d eps       ncg     rms          rms(c)
DAV:   1     0.458813992089E+04    0.45881E+04   -0.17978E+05  1944   0.920E+02
DAV:   2    -0.138986412147E+03   -0.47271E+04   -0.43368E+04  2520   0.207E+02
DAV:   3    -0.119863450706E+04   -0.10596E+04   -0.10542E+04  2088   0.106E+02
DAV:   4    -0.124068347387E+04   -0.42049E+02   -0.41783E+02  2016   0.275E+01
DAV:   5    -0.124176508002E+04   -0.10816E+01   -0.10777E+01  2304   0.413E+00    0.709E+01
RMM:   6    -0.122219723966E+04    0.19568E+02   -0.23796E+01  1584   0.486E+00    0.547E+01
RMM:   7    -0.120567879478E+04    0.16518E+02   -0.10530E+01  1584   0.381E+00    0.416E+01
RMM:   8    -0.118140969408E+04    0.24269E+02   -0.28050E+01  1584   0.611E+00    0.282E+01
RMM:   9    -0.117204677028E+04    0.93629E+01   -0.17827E+01  1584   0.486E+00    0.203E+01
RMM:  10    -0.117303768227E+04   -0.99091E+00   -0.18678E+01  1584   0.494E+00    0.855E+00
RMM:  11    -0.117270359054E+04    0.33409E+00   -0.44695E-01  1625   0.933E-01    0.637E+00
RMM:  12    -0.117212340244E+04    0.58019E+00   -0.16615E+00  1584   0.144E+00    0.254E+00
RMM:  13    -0.117211916596E+04    0.42365E-02   -0.17010E-01  1586   0.398E-01    0.183E+00
RMM:  14    -0.117204377407E+04    0.75392E-01   -0.20660E-01  1584   0.508E-01    0.570E-01
RMM:  15    -0.117204278358E+04    0.99049E-03   -0.60131E-03  1617   0.106E-01    0.349E-01
RMM:  16    -0.117204161376E+04    0.11698E-02   -0.43691E-03  1586   0.724E-02    0.226E-01
RMM:  17    -0.117204238047E+04   -0.76671E-03   -0.43686E-03  1584   0.789E-02    0.188E-01
RMM:  18    -0.117204205762E+04    0.32285E-03   -0.63020E-04  1467   0.312E-02    0.105E-01
RMM:  19    -0.117204203162E+04    0.25995E-04   -0.17997E-04  1096   0.169E-02
   1 F= -.11791787E+04 E0= -.11791787E+04  d E =-.117918E+04  mag=     0.9974
       N       E                     dE             d eps       ncg     rms          rms(c)
DAV:   1    -0.117200477090E+04    0.37287E-01   -0.67002E+00  1656   0.371E+00    0.218E+00
RMM:   2    -0.117202938023E+04   -0.24609E-01   -0.28579E-01  1584   0.584E-01    0.208E+00
RMM:   3    -0.117202574064E+04    0.36396E-02   -0.95134E-03  1689   0.902E-02    0.180E+00
RMM:   4    -0.117202309676E+04    0.26439E-02   -0.13934E-02  1584   0.133E-01    0.545E-01
RMM:   5    -0.117202390624E+04   -0.80949E-03   -0.70780E-04  1271   0.308E-02    0.273E-01
RMM:   6    -0.117202436130E+04   -0.45505E-03   -0.44742E-04  1204   0.264E-02    0.114E-01
RMM:   7    -0.117202427284E+04    0.88454E-04   -0.13662E-04  1054   0.145E-02
   2 F= -.11791632E+04 E0= -.11791632E+04  d E =0.154077E-01  mag=     1.0000
       N       E                     dE             d eps       ncg     rms          rms(c)
DAV:   1    -0.117203624818E+04   -0.11887E-01   -0.30593E+00  1692   0.250E+00    0.141E+00
RMM:   2    -0.117204794796E+04   -0.11700E-01   -0.13711E-01  1584   0.401E-01    0.141E+00
RMM:   3    -0.117204620305E+04    0.17449E-02   -0.40384E-03  1448   0.576E-02    0.136E+00
RMM:   4    -0.117204530834E+04    0.89470E-03   -0.47688E-03  1583   0.764E-02    0.589E-01
RMM:   5    -0.117204511496E+04    0.19338E-03   -0.15559E-03  1569   0.446E-02    0.214E-01
RMM:   6    -0.117204530275E+04   -0.18779E-03   -0.18556E-04  1092   0.161E-02    0.109E-01
RMM:   7    -0.117204529992E+04    0.28251E-05   -0.15940E-04  1059   0.153E-02
   3 F= -.11791827E+04 E0= -.11791827E+04  d E =-.403846E-02  mag=     1.0000
       N       E                     dE             d eps       ncg     rms          rms(c)
DAV:   1    -0.117204597383E+04   -0.67109E-03   -0.69380E-01  1656   0.139E+00    0.317E-01
RMM:   2    -0.117204776092E+04   -0.17871E-02   -0.24087E-02  1584   0.205E-01    0.287E-01
RMM:   3    -0.117204715105E+04    0.60987E-03   -0.10175E-03  1327   0.380E-02    0.248E-01
RMM:   4    -0.117204638194E+04    0.76910E-03   -0.19704E-03  1584   0.508E-02    0.111E-01
RMM:   5    -0.117204639311E+04   -0.11166E-04   -0.58389E-04  1521   0.278E-02
   4 F= -.11791840E+04 E0= -.11791840E+04  d E =-.133791E-02  mag=     1.0000
       N       E                     dE             d eps       ncg     rms          rms(c)
DAV:   1    -0.117204659841E+04   -0.21646E-03   -0.35734E-02  1728   0.316E-01    0.680E-02
RMM:   2    -0.117204666591E+04   -0.67499E-04   -0.11973E-03  1296   0.458E-02    0.586E-02
RMM:   3    -0.117204661452E+04    0.51381E-04   -0.62419E-05   985   0.115E-02
   5 F= -.11791842E+04 E0= -.11791842E+04  d E =-.150363E-02  mag=     1.0000
       N       E                     dE             d eps       ncg     rms          rms(c)
DAV:   1    -0.117204464680E+04    0.20191E-02   -0.58658E-01  1764   0.133E+00    0.213E-01
RMM:   2    -0.117204691650E+04   -0.22697E-02   -0.24525E-02  1584   0.198E-01    0.175E-01
RMM:   3    -0.117204666404E+04    0.25246E-03   -0.86847E-04  1261   0.350E-02    0.148E-01
RMM:   4    -0.117204660992E+04    0.54118E-04   -0.54887E-04  1383   0.283E-02
   6 F= -.11791842E+04 E0= -.11791842E+04  d E =-.771676E-05  mag=     1.0000
       N       E                     dE             d eps       ncg     rms          rms(c)
DAV:   1    -0.117204666630E+04   -0.22618E-05   -0.12371E-01  1764   0.609E-01    0.895E-02
RMM:   2    -0.117204715531E+04   -0.48901E-03   -0.51386E-03  1575   0.919E-02    0.696E-02
RMM:   3    -0.117204710094E+04    0.54369E-04   -0.17093E-04  1053   0.166E-02
   7 F= -.11791847E+04 E0= -.11791847E+04  d E =-.493145E-03  mag=     1.0000
