       N       E                     dE             d eps       ncg     rms          rms(c)
DAV:   1     0.464882899372E+04    0.46488E+04   -0.17734E+05  1888   0.941E+02
DAV:   2    -0.905175952835E+02   -0.47393E+04   -0.43130E+04  2400   0.211E+02
DAV:   3    -0.119443547726E+04   -0.11039E+04   -0.10980E+04  1952   0.110E+02
DAV:   4    -0.124058671963E+04   -0.46151E+02   -0.45886E+02  1920   0.301E+01
DAV:   5    -0.124179914658E+04   -0.12124E+01   -0.12099E+01  2368   0.460E+00    0.749E+01
RMM:   6    -0.122355190449E+04    0.18247E+02   -0.15140E+01  1573   0.461E+00    0.519E+01
RMM:   7    -0.120213069754E+04    0.21421E+02   -0.26800E+01  1543   0.619E+00    0.362E+01
RMM:   8    -0.117850817639E+04    0.23623E+02   -0.34573E+01  1549   0.767E+00    0.241E+01
RMM:   9    -0.117385309812E+04    0.46551E+01   -0.13990E+01  1549   0.519E+00    0.172E+01
RMM:  10    -0.117456354919E+04   -0.71045E+00   -0.10313E+01  1545   0.435E+00    0.857E+00
RMM:  11    -0.117480471778E+04   -0.24117E+00   -0.17677E+00  1632   0.220E+00    0.619E+00
RMM:  12    -0.117418205245E+04    0.62267E+00   -0.92162E-01  1536   0.127E+00    0.270E+00
RMM:  13    -0.117403278727E+04    0.14927E+00   -0.37389E-01  1537   0.825E-01    0.120E+00
RMM:  14    -0.117402767006E+04    0.51172E-02   -0.88191E-02  1547   0.432E-01    0.726E-01
RMM:  15    -0.117402817611E+04   -0.50605E-03   -0.19191E-02  1663   0.211E-01    0.512E-01
RMM:  16    -0.117402804429E+04    0.13182E-03   -0.10023E-02  1601   0.135E-01    0.347E-01
RMM:  17    -0.117402889695E+04   -0.85266E-03   -0.30163E-03  1633   0.791E-02    0.296E-01
RMM:  18    -0.117402843918E+04    0.45777E-03   -0.13882E-03  1536   0.551E-02    0.119E-01
RMM:  19    -0.117402885380E+04   -0.41462E-03   -0.64718E-04  1576   0.359E-02    0.770E-02
RMM:  20    -0.117402876860E+04    0.85203E-04   -0.24640E-04  1556   0.219E-02    0.647E-02
RMM:  21    -0.117402875213E+04    0.16471E-04   -0.84120E-05  1648   0.108E-02    0.517E-02
RMM:  22    -0.117402875898E+04   -0.68495E-05   -0.22427E-05  1748   0.552E-03    0.457E-02
RMM:  23    -0.117402874966E+04    0.93203E-05   -0.38822E-05  1558   0.803E-03    0.220E-02
RMM:  24    -0.117402874767E+04    0.19867E-05   -0.20595E-05  1556   0.615E-03    0.100E-02
RMM:  25    -0.117402874539E+04    0.22806E-05   -0.53675E-06  1350   0.311E-03    0.119E-02
RMM:  26    -0.117402874517E+04    0.22152E-06   -0.16144E-06  1059   0.172E-03
   1 F= -.11810929E+04 E0= -.11810929E+04  d E =-.118109E+04  mag=     1.0000
       N       E                     dE             d eps       ncg     rms          rms(c)
DAV:   1    -0.117402711900E+04    0.16264E-02   -0.26591E-01  1824   0.109E+00    0.176E-01
RMM:   2    -0.117402843690E+04   -0.13179E-02   -0.14042E-02  1567   0.167E-01    0.148E-01
RMM:   3    -0.117402870685E+04   -0.26995E-03   -0.35360E-03  1686   0.681E-02    0.124E-01
RMM:   4    -0.117402866516E+04    0.41691E-04   -0.38216E-04  1833   0.268E-02    0.102E-01
RMM:   5    -0.117402858745E+04    0.77710E-04   -0.26708E-04  1553   0.218E-02    0.554E-02
RMM:   6    -0.117402860568E+04   -0.18232E-04   -0.20812E-04  1552   0.189E-02    0.319E-02
RMM:   7    -0.117402858797E+04    0.17712E-04   -0.40161E-05  1536   0.876E-03    0.194E-02
RMM:   8    -0.117402858973E+04   -0.17612E-05   -0.17880E-05  1558   0.519E-03    0.147E-02
RMM:   9    -0.117402858802E+04    0.17072E-05   -0.48034E-06  1341   0.311E-03    0.114E-02
RMM:  10    -0.117402858768E+04    0.34367E-06   -0.36884E-06  1276   0.243E-03
   2 F= -.11810932E+04 E0= -.11810932E+04  d E =-.278607E-03  mag=     1.0000
       N       E                     dE             d eps       ncg     rms          rms(c)
DAV:   1    -0.117402889277E+04   -0.30475E-03   -0.48497E-02  1792   0.464E-01    0.762E-02
RMM:   2    -0.117402909549E+04   -0.20272E-03   -0.22098E-03  1543   0.686E-02    0.641E-02
RMM:   3    -0.117402913210E+04   -0.36611E-04   -0.53691E-04  1608   0.267E-02    0.522E-02
RMM:   4    -0.117402912237E+04    0.97332E-05   -0.55989E-05  1734   0.108E-02    0.408E-02
RMM:   5    -0.117402911039E+04    0.11979E-04   -0.50885E-05  1541   0.951E-03    0.204E-02
RMM:   6    -0.117402911304E+04   -0.26491E-05   -0.26802E-05  1537   0.701E-03    0.122E-02
RMM:   7    -0.117402911046E+04    0.25805E-05   -0.54980E-06  1424   0.328E-03    0.758E-03
RMM:   8    -0.117402911050E+04   -0.41364E-07   -0.26079E-06  1129   0.197E-03
   3 F= -.11810935E+04 E0= -.11810935E+04  d E =-.615236E-03  mag=     1.0000
       N       E                     dE             d eps       ncg     rms          rms(c)
DAV:   1    -0.117402912566E+04   -0.15205E-04   -0.16299E-01  1920   0.777E-01    0.143E-01
RMM:   2    -0.117402958019E+04   -0.45453E-03   -0.52691E-03  1547   0.113E-01    0.167E-01
RMM:   3    -0.117402970333E+04   -0.12313E-03   -0.12220E-03  1601   0.446E-02    0.165E-01
RMM:   4    -0.117402971948E+04   -0.16156E-04   -0.15378E-04  1892   0.176E-02    0.177E-01
RMM:   5    -0.117402969857E+04    0.20909E-04   -0.89274E-05  1548   0.126E-02    0.129E-01
RMM:   6    -0.117402969152E+04    0.70524E-05   -0.14543E-04  1546   0.155E-02    0.124E-01
RMM:   7    -0.117402967709E+04    0.14428E-04   -0.32481E-05  1544   0.781E-03    0.127E-01
RMM:   8    -0.117402965785E+04    0.19244E-04   -0.11890E-05  1541   0.448E-03    0.109E-01
RMM:   9    -0.117402964297E+04    0.14880E-04   -0.12681E-05  1568   0.434E-03    0.877E-02
RMM:  10    -0.117402963393E+04    0.90407E-05   -0.89150E-06  1485   0.381E-03    0.701E-02
RMM:  11    -0.117402962997E+04    0.39586E-05   -0.38183E-06  1211   0.246E-03    0.561E-02
RMM:  12    -0.117402962734E+04    0.26314E-05   -0.21170E-06  1082   0.192E-03    0.395E-02
RMM:  13    -0.117402962647E+04    0.87197E-06   -0.11377E-06  1028   0.148E-03
   4 F= -.11810940E+04 E0= -.11810940E+04  d E =-.487881E-03  mag=     1.0000
       N       E                     dE             d eps       ncg     rms          rms(c)
DAV:   1    -0.117402962501E+04    0.23263E-05   -0.12083E-03  1952   0.664E-02    0.248E-02
RMM:   2    -0.117402962839E+04   -0.33737E-05   -0.39117E-05  1545   0.985E-03    0.232E-02
RMM:   3    -0.117402962866E+04   -0.27439E-06   -0.83699E-06  1294   0.404E-03
   5 F= -.11810940E+04 E0= -.11810940E+04  d E =-.492473E-03  mag=     1.0000
       N       E                     dE             d eps       ncg     rms          rms(c)
DAV:   1    -0.117403001650E+04   -0.38811E-03   -0.57405E-02  1632   0.437E-01    0.531E-02
RMM:   2    -0.117403009865E+04   -0.82151E-04   -0.10234E-03  1555   0.547E-02    0.535E-02
RMM:   3    -0.117403011445E+04   -0.15800E-04   -0.22160E-04  1601   0.228E-02    0.512E-02
RMM:   4    -0.117403011166E+04    0.27877E-05   -0.41221E-05  1826   0.982E-03    0.485E-02
RMM:   5    -0.117403009978E+04    0.11881E-04   -0.57174E-05  1539   0.966E-03    0.297E-02
RMM:   6    -0.117403010638E+04   -0.65986E-05   -0.37152E-05  1538   0.777E-03    0.222E-02
RMM:   7    -0.117403010343E+04    0.29471E-05   -0.48022E-06  1350   0.331E-03    0.140E-02
RMM:   8    -0.117403010330E+04    0.13277E-06   -0.22147E-06  1086   0.195E-03
   6 F= -.11810945E+04 E0= -.11810945E+04  d E =-.489005E-03  mag=     1.0000
       N       E                     dE             d eps       ncg     rms          rms(c)
DAV:   1    -0.117403035703E+04   -0.25360E-03   -0.99834E-02  1664   0.576E-01    0.671E-02
RMM:   2    -0.117403050129E+04   -0.14426E-03   -0.17912E-03  1553   0.724E-02    0.665E-02
RMM:   3    -0.117403052820E+04   -0.26907E-04   -0.38801E-04  1601   0.303E-02    0.624E-02
RMM:   4    -0.117403052288E+04    0.53148E-05   -0.73671E-05  1765   0.133E-02    0.561E-02
RMM:   5    -0.117403051519E+04    0.76900E-05   -0.11414E-04  1540   0.137E-02    0.283E-02
RMM:   6    -0.117403052140E+04   -0.62057E-05   -0.28989E-05  1538   0.765E-03    0.201E-02
RMM:   7    -0.117403051850E+04    0.28992E-05   -0.45312E-06  1348   0.332E-03    0.128E-02
RMM:   8    -0.117403051796E+04    0.53895E-06   -0.39996E-06  1326   0.244E-03
   7 F= -.11810949E+04 E0= -.11810949E+04  d E =-.923115E-03  mag=     1.0000
