       N       E                     dE             d eps       ncg     rms          rms(c)
DAV:   1     0.499316895494E+04    0.49932E+04   -0.17051E+05  1760   0.938E+02
DAV:   2    -0.172542394969E+02   -0.50104E+04   -0.45691E+04  2464   0.218E+02
DAV:   3    -0.119628177538E+04   -0.11790E+04   -0.11697E+04  2112   0.116E+02
DAV:   4    -0.124631547666E+04   -0.50034E+02   -0.49729E+02  1984   0.313E+01
DAV:   5    -0.124768231189E+04   -0.13668E+01   -0.13629E+01  2304   0.501E+00    0.764E+01
RMM:   6    -0.124084793364E+04    0.68344E+01   -0.89882E+01  1660   0.143E+01    0.855E+01
RMM:   7    -0.121743922383E+04    0.23409E+02   -0.14885E+01  1542   0.596E+00    0.549E+01
RMM:   8    -0.120544958756E+04    0.11990E+02   -0.12102E+01  1562   0.446E+00    0.420E+01
RMM:   9    -0.118774257651E+04    0.17707E+02   -0.11617E+01  1543   0.449E+00    0.321E+01
RMM:  10    -0.117109313146E+04    0.16649E+02   -0.28302E+01  1702   0.671E+00    0.214E+01
RMM:  11    -0.116850054836E+04    0.25926E+01   -0.64991E+00  1560   0.373E+00    0.161E+01
RMM:  12    -0.116989839692E+04   -0.13978E+01   -0.90887E+00  1585   0.397E+00    0.116E+01
RMM:  13    -0.116942436516E+04    0.47403E+00   -0.10988E+00  1699   0.194E+00    0.911E+00
RMM:  14    -0.116930219924E+04    0.12217E+00   -0.63767E-01  1562   0.100E+00    0.958E+00
RMM:  15    -0.116933795467E+04   -0.35755E-01   -0.18065E-01  1608   0.563E-01    0.777E+00
RMM:  16    -0.116924350787E+04    0.94447E-01   -0.39915E-01  1578   0.810E-01    0.411E+00
RMM:  17    -0.116920161262E+04    0.41895E-01   -0.14706E-01  1552   0.536E-01    0.284E+00
RMM:  18    -0.116919489130E+04    0.67213E-02   -0.63857E-02  1687   0.371E-01    0.190E+00
RMM:  19    -0.116919089987E+04    0.39914E-02   -0.21394E-02  1659   0.197E-01    0.153E+00
RMM:  20    -0.116918238170E+04    0.85182E-02   -0.11497E-02  1580   0.146E-01    0.124E+00
RMM:  21    -0.116918160979E+04    0.77192E-03   -0.96235E-03  1623   0.116E-01    0.642E-01
RMM:  22    -0.116918151488E+04    0.94909E-04   -0.25560E-03  1714   0.691E-02    0.302E-01
RMM:  23    -0.116918160216E+04   -0.87277E-04   -0.78185E-04  1549   0.406E-02    0.227E-01
RMM:  24    -0.116918172221E+04   -0.12005E-03   -0.33502E-04  1730   0.264E-02    0.128E-01
RMM:  25    -0.116918172585E+04   -0.36394E-05   -0.21591E-04  1561   0.192E-02    0.780E-02
RMM:  26    -0.116918170113E+04    0.24720E-04   -0.54407E-05  1694   0.105E-02    0.613E-02
RMM:  27    -0.116918169320E+04    0.79243E-05   -0.18222E-05  1568   0.571E-03    0.460E-02
RMM:  28    -0.116918169090E+04    0.22997E-05   -0.10886E-05  1503   0.445E-03    0.339E-02
RMM:  29    -0.116918168731E+04    0.35902E-05   -0.27739E-06  1101   0.260E-03    0.272E-02
RMM:  30    -0.116918168241E+04    0.49013E-05   -0.22620E-06  1075   0.196E-03    0.168E-02
RMM:  31    -0.116918168097E+04    0.14466E-05   -0.85074E-07  1043   0.143E-03    0.120E-02
RMM:  32    -0.116918168038E+04    0.59017E-06   -0.40712E-07  1017   0.105E-03
   1 F= -.11762445E+04 E0= -.11762438E+04  d E =-.117624E+04  mag=    -2.9871
       N       E                     dE             d eps       ncg     rms          rms(c)
DAV:   1    -0.116917962323E+04    0.20577E-02   -0.36002E-01  1664   0.100E+00    0.186E-01
RMM:   2    -0.116918042771E+04   -0.80449E-03   -0.10042E-02  1570   0.160E-01    0.184E-01
RMM:   3    -0.116918057352E+04   -0.14581E-03   -0.22923E-03  1848   0.706E-02    0.163E-01
RMM:   4    -0.116918036997E+04    0.20356E-03   -0.39601E-04  1680   0.297E-02    0.132E-01
RMM:   5    -0.116918018266E+04    0.18731E-03   -0.62639E-04  1543   0.312E-02    0.872E-02
RMM:   6    -0.116918017725E+04    0.54144E-05   -0.29200E-04  1702   0.238E-02    0.612E-02
RMM:   7    -0.116918016303E+04    0.14217E-04   -0.61648E-05  1660   0.118E-02    0.378E-02
RMM:   8    -0.116918015762E+04    0.54091E-05   -0.52204E-05  1550   0.897E-03    0.194E-02
RMM:   9    -0.116918015544E+04    0.21793E-05   -0.14953E-05  1570   0.564E-03    0.134E-02
RMM:  10    -0.116918015455E+04    0.89056E-06   -0.73429E-06  1496   0.396E-03
   2 F= -.11762435E+04 E0= -.11762424E+04  d E =0.100144E-02  mag=    -2.9776
       N       E                     dE             d eps       ncg     rms          rms(c)
DAV:   1    -0.116918194784E+04   -0.17924E-02   -0.14134E-01  1696   0.624E-01    0.116E-01
RMM:   2    -0.116918217070E+04   -0.22286E-03   -0.30700E-03  1540   0.965E-02    0.113E-01
RMM:   3    -0.116918221102E+04   -0.40314E-04   -0.76313E-04  1840   0.426E-02    0.994E-02
RMM:   4    -0.116918212825E+04    0.82763E-04   -0.14877E-04  1637   0.181E-02    0.790E-02
RMM:   5    -0.116918205647E+04    0.71788E-04   -0.22094E-04  1553   0.187E-02    0.515E-02
RMM:   6    -0.116918205043E+04    0.60320E-05   -0.10137E-04  1729   0.140E-02    0.359E-02
RMM:   7    -0.116918204516E+04    0.52765E-05   -0.21198E-05  1615   0.678E-03    0.226E-02
RMM:   8    -0.116918204221E+04    0.29513E-05   -0.19511E-05  1532   0.560E-03    0.112E-02
RMM:   9    -0.116918204154E+04    0.66333E-06   -0.57729E-06  1379   0.350E-03
   3 F= -.11762450E+04 E0= -.11762442E+04  d E =-.556627E-03  mag=    -2.9840
