       N       E                     dE             d eps       ncg     rms          rms(c)
DAV:   1     0.468825003728E+04    0.46883E+04   -0.17931E+05  1944   0.923E+02
DAV:   2    -0.934815939749E+02   -0.47817E+04   -0.43712E+04  2520   0.206E+02
DAV:   3    -0.119602537108E+04   -0.11025E+04   -0.10964E+04  2088   0.108E+02
DAV:   4    -0.124036657837E+04   -0.44341E+02   -0.44065E+02  1980   0.284E+01
DAV:   5    -0.124152454426E+04   -0.11580E+01   -0.11548E+01  2376   0.433E+00    0.713E+01
RMM:   6    -0.122305532256E+04    0.18469E+02   -0.27933E+01  1585   0.506E+00    0.583E+01
RMM:   7    -0.120900727159E+04    0.14048E+02   -0.78840E+00  1584   0.323E+00    0.445E+01
RMM:   8    -0.118583901709E+04    0.23168E+02   -0.22255E+01  1584   0.548E+00    0.315E+01
RMM:   9    -0.117223695320E+04    0.13602E+02   -0.22768E+01  1584   0.549E+00    0.217E+01
RMM:  10    -0.117202497231E+04    0.21198E+00   -0.20121E+01  1584   0.509E+00    0.936E+00
RMM:  11    -0.117235890235E+04   -0.33393E+00   -0.12369E+00  1610   0.140E+00    0.721E+00
RMM:  12    -0.117160169341E+04    0.75721E+00   -0.14786E+00  1584   0.132E+00    0.366E+00
RMM:  13    -0.117147871103E+04    0.12298E+00   -0.35277E-01  1584   0.690E-01    0.716E+00
RMM:  14    -0.117143287270E+04    0.45838E-01   -0.18751E-02  1619   0.174E-01    0.675E+00
RMM:  15    -0.117137753862E+04    0.55334E-01   -0.21134E-02  1584   0.157E-01    0.292E+00
RMM:  16    -0.117141029191E+04   -0.32753E-01   -0.63472E-03  1578   0.104E-01    0.298E+00
RMM:  17    -0.117141623229E+04   -0.59404E-02   -0.68603E-04  1265   0.404E-02    0.316E+00
RMM:  18    -0.117141428669E+04    0.19456E-02   -0.17919E-02  1584   0.149E-01    0.479E+00
RMM:  19    -0.117138788921E+04    0.26397E-01   -0.18902E-02  1590   0.160E-01    0.217E+00
RMM:  20    -0.117139983997E+04   -0.11951E-01   -0.16415E-03  1497   0.623E-02    0.213E+00
RMM:  21    -0.117140039989E+04   -0.55991E-03   -0.18005E-04  1101   0.221E-02    0.212E+00
RMM:  22    -0.117140561733E+04   -0.52174E-02   -0.21716E-03  1500   0.548E-02    0.236E+00
RMM:  23    -0.117140142122E+04    0.41961E-02   -0.28104E-04  1124   0.271E-02    0.234E+00
RMM:  24    -0.117139150197E+04    0.99192E-02   -0.25751E-03  1583   0.606E-02    0.211E+00
RMM:  25    -0.117138212573E+04    0.93762E-02   -0.17921E-02  1584   0.141E-01    0.236E+00
RMM:  26    -0.117139733462E+04   -0.15209E-01   -0.34973E-03  1519   0.712E-02    0.289E+00
RMM:  27    -0.117139289084E+04    0.44438E-02   -0.59906E-04  1219   0.410E-02    0.283E+00
RMM:  28    -0.117138511289E+04    0.77780E-02   -0.78039E-04  1206   0.340E-02    0.216E+00
RMM:  29    -0.117138963165E+04   -0.45188E-02   -0.33248E-03  1470   0.599E-02    0.153E+00
RMM:  30    -0.117139250445E+04   -0.28728E-02   -0.42607E-03  1547   0.736E-02    0.742E-01
RMM:  31    -0.117139408283E+04   -0.15784E-02   -0.18108E-03  1309   0.497E-02    0.732E-01
RMM:  32    -0.117139865274E+04   -0.45699E-02   -0.10251E-03  1158   0.340E-02    0.177E+00
RMM:  33    -0.117139598919E+04    0.26636E-02   -0.34488E-04  1109   0.301E-02    0.188E+00
RMM:  34    -0.117139814912E+04   -0.21599E-02   -0.62743E-04  1155   0.283E-02    0.226E+00
RMM:  35    -0.117139337651E+04    0.47726E-02   -0.79871E-04  1339   0.350E-02    0.187E+00
RMM:  36    -0.117138672017E+04    0.66563E-02   -0.17077E-03  1375   0.483E-02    0.525E-01
RMM:  37    -0.117139389395E+04   -0.71738E-02   -0.71314E-04  1187   0.386E-02    0.527E-01
RMM:  38    -0.117139330192E+04    0.59203E-03   -0.75822E-04  1129   0.273E-02    0.380E-01
RMM:  39    -0.117139398776E+04   -0.68584E-03   -0.21765E-04  1071   0.224E-02    0.392E-01
RMM:  40    -0.117139387228E+04    0.11548E-03   -0.47174E-05   974   0.902E-03    0.387E-01
RMM:  41    -0.117139370224E+04    0.17004E-03   -0.13131E-04  1043   0.151E-02    0.247E-01
RMM:  42    -0.117139345651E+04    0.24573E-03   -0.28386E-04  1077   0.205E-02    0.249E-01
RMM:  43    -0.117139346710E+04   -0.10590E-04   -0.84117E-05   957   0.121E-02
   1 F= -.11785240E+04 E0= -.11785146E+04  d E =-.117852E+04  mag=    -0.0026
       N       E                     dE             d eps       ncg     rms          rms(c)
DAV:   1    -0.117111096500E+04    0.28249E+00   -0.67959E+01  1692   0.130E+01    0.514E+00
RMM:   2    -0.117131326786E+04   -0.20230E+00   -0.28193E+00  1594   0.217E+00    0.517E+00
RMM:   3    -0.117129394304E+04    0.19325E-01   -0.12727E-01  1772   0.377E-01    0.489E+00
RMM:   4    -0.117126041694E+04    0.33526E-01   -0.11959E-01  1593   0.387E-01    0.235E+00
RMM:   5    -0.117126400313E+04   -0.35862E-02   -0.80647E-02  1595   0.317E-01    0.873E-01
RMM:   6    -0.117125935763E+04    0.46455E-02   -0.39598E-03  1587   0.727E-02    0.552E-01
RMM:   7    -0.117125331638E+04    0.60413E-02   -0.21105E-02  1588   0.142E-01    0.270E-01
RMM:   8    -0.117125262673E+04    0.68965E-03   -0.23849E-03  1542   0.525E-02    0.206E-01
RMM:   9    -0.117125250482E+04    0.12191E-03   -0.28552E-04  1147   0.208E-02    0.208E-01
RMM:  10    -0.117125248895E+04    0.15870E-04   -0.41444E-05  1020   0.102E-02
   2 F= -.11783897E+04 E0= -.11783896E+04  d E =0.134299E+00  mag=    -0.0002
       N       E                     dE             d eps       ncg     rms          rms(c)
DAV:   1    -0.117139468419E+04   -0.14218E+00   -0.28034E+01  1656   0.827E+00    0.311E+00
RMM:   2    -0.117147782712E+04   -0.83143E-01   -0.11245E+00  1592   0.136E+00    0.352E+00
RMM:   3    -0.117146933178E+04    0.84953E-02   -0.45144E-02  1738   0.225E-01    0.349E+00
RMM:   4    -0.117146957480E+04   -0.24302E-03   -0.41840E-03  1552   0.630E-02    0.346E+00
RMM:   5    -0.117147981468E+04   -0.10240E-01   -0.21535E-03  1290   0.509E-02    0.358E+00
RMM:   6    -0.117144156604E+04    0.38249E-01   -0.74099E-02  1589   0.296E-01    0.217E+00
RMM:   7    -0.117146438250E+04   -0.22816E-01   -0.41955E-02  1605   0.230E-01    0.214E+00
RMM:   8    -0.117145254250E+04    0.11840E-01   -0.79156E-03  1576   0.101E-01    0.128E+00
RMM:   9    -0.117144739066E+04    0.51518E-02   -0.96788E-03  1584   0.104E-01    0.588E-01
RMM:  10    -0.117144963379E+04   -0.22431E-02   -0.71592E-04  1280   0.410E-02    0.493E-01
RMM:  11    -0.117144962365E+04    0.10139E-04   -0.11620E-04  1049   0.210E-02
   3 F= -.11785828E+04 E0= -.11785803E+04  d E =-.587989E-01  mag=    -0.0013
       N       E                     dE             d eps       ncg     rms          rms(c)
DAV:   1    -0.117144966894E+04   -0.35151E-04   -0.47968E+00  1728   0.353E+00    0.105E+00
RMM:   2    -0.117145695373E+04   -0.72848E-02   -0.11560E-01  1584   0.482E-01    0.108E+00
RMM:   3    -0.117145622447E+04    0.72926E-03   -0.71894E-03  1739   0.978E-02    0.104E+00
RMM:   4    -0.117145295947E+04    0.32650E-02   -0.26277E-03  1596   0.615E-02    0.815E-01
RMM:   5    -0.117145098919E+04    0.19703E-02   -0.23023E-02  1584   0.169E-01    0.246E-01
RMM:   6    -0.117145067587E+04    0.31331E-03   -0.82666E-04  1499   0.364E-02    0.276E-01
RMM:   7    -0.117145082021E+04   -0.14434E-03   -0.36209E-04  1203   0.248E-02    0.222E-01
RMM:   8    -0.117145055203E+04    0.26818E-03   -0.11160E-04  1042   0.151E-02    0.195E-01
RMM:   9    -0.117145001159E+04    0.54045E-03   -0.14380E-03  1496   0.380E-02    0.112E-01
RMM:  10    -0.117144984859E+04    0.16300E-03   -0.29804E-04  1185   0.200E-02    0.767E-02
RMM:  11    -0.117144977276E+04    0.75826E-04   -0.43620E-04  1360   0.238E-02
   4 F= -.11785827E+04 E0= -.11785800E+04  d E =0.125452E-03  mag=    -0.0033
       N       E                     dE             d eps       ncg     rms          rms(c)
DAV:   1    -0.117145539278E+04   -0.55442E-02   -0.13680E+00  1692   0.189E+00    0.537E-01
RMM:   2    -0.117145753576E+04   -0.21430E-02   -0.31408E-02  1584   0.252E-01    0.569E-01
RMM:   3    -0.117145748362E+04    0.52137E-04   -0.18820E-03  1501   0.505E-02    0.566E-01
RMM:   4    -0.117145723686E+04    0.24677E-03   -0.21591E-04  1091   0.191E-02    0.533E-01
RMM:   5    -0.117145696945E+04    0.26741E-03   -0.10675E-02  1584   0.112E-01    0.271E-01
RMM:   6    -0.117145683106E+04    0.13839E-03   -0.12463E-03  1585   0.415E-02    0.261E-01
RMM:   7    -0.117145626675E+04    0.56431E-03   -0.56984E-04  1289   0.248E-02    0.188E-01
RMM:   8    -0.117145608748E+04    0.17927E-03   -0.22614E-04  1095   0.174E-02    0.149E-01
RMM:   9    -0.117145608611E+04    0.13721E-05   -0.28637E-05   960   0.811E-03
   5 F= -.11785891E+04 E0= -.11785856E+04  d E =-.634467E-02  mag=    -0.0252
       N       E                     dE             d eps       ncg     rms          rms(c)
DAV:   1    -0.117146126217E+04   -0.51747E-02   -0.15934E+00  1728   0.210E+00    0.549E-01
RMM:   2    -0.117146358574E+04   -0.23236E-02   -0.42287E-02  1584   0.306E-01    0.521E-01
RMM:   3    -0.117146206410E+04    0.15216E-02   -0.20112E-03  1649   0.578E-02    0.470E-01
RMM:   4    -0.117145986645E+04    0.21977E-02   -0.49618E-03  1584   0.801E-02    0.450E-01
RMM:   5    -0.117145970478E+04    0.16166E-03   -0.18223E-04  1095   0.228E-02    0.433E-01
RMM:   6    -0.117145882080E+04    0.88398E-03   -0.37245E-04  1227   0.247E-02    0.261E-01
RMM:   7    -0.117145889043E+04   -0.69628E-04   -0.19467E-03  1584   0.514E-02    0.172E-01
RMM:   8    -0.117145896540E+04   -0.74963E-04   -0.54446E-05  1017   0.144E-02
   6 F= -.11785917E+04 E0= -.11785877E+04  d E =-.261283E-02  mag=    -0.0808
       N       E                     dE             d eps       ncg     rms          rms(c)
DAV:   1    -0.117146079970E+04   -0.19093E-02   -0.24011E-01  1728   0.815E-01    0.267E-01
RMM:   2    -0.117146115925E+04   -0.35955E-03   -0.60180E-03  1584   0.114E-01    0.286E-01
RMM:   3    -0.117146112490E+04    0.34343E-04   -0.31212E-04  1162   0.232E-02
   7 F= -.11785940E+04 E0= -.11785892E+04  d E =-.487776E-02  mag=    -0.0714
       N       E                     dE             d eps       ncg     rms          rms(c)
DAV:   1    -0.117146564160E+04   -0.44824E-02   -0.80837E-01  1872   0.158E+00    0.673E-01
RMM:   2    -0.117146580227E+04   -0.16067E-03   -0.32578E-02  1584   0.239E-01    0.643E-01
RMM:   3    -0.117146265225E+04    0.31500E-02   -0.21931E-03  1585   0.555E-02    0.546E-01
RMM:   4    -0.117145897334E+04    0.36789E-02   -0.10951E-02  1584   0.116E-01    0.535E-01
RMM:   5    -0.117145884118E+04    0.13216E-03   -0.32086E-04  1183   0.268E-02    0.498E-01
RMM:   6    -0.117145835903E+04    0.48215E-03   -0.23606E-04  1101   0.192E-02    0.405E-01
RMM:   7    -0.117145844146E+04   -0.82433E-04   -0.10756E-03  1584   0.381E-02    0.418E-01
RMM:   8    -0.117145855150E+04   -0.11004E-03   -0.21383E-03  1584   0.543E-02    0.300E-01
RMM:   9    -0.117145867753E+04   -0.12603E-03   -0.98799E-05  1040   0.153E-02    0.292E-01
RMM:  10    -0.117145896168E+04   -0.28415E-03   -0.64682E-05  1013   0.113E-02    0.308E-01
RMM:  11    -0.117145764983E+04    0.13119E-02   -0.20071E-03  1566   0.482E-02    0.121E-01
RMM:  12    -0.117145785525E+04   -0.20542E-03   -0.23449E-04  1113   0.198E-02    0.103E-01
RMM:  13    -0.117145774683E+04    0.10842E-03   -0.79298E-04  1536   0.303E-02    0.857E-02
RMM:  14    -0.117145776721E+04   -0.20382E-04   -0.64775E-05   997   0.104E-02
   8 F= -.11785907E+04 E0= -.11785874E+04  d E =0.327451E-02  mag=     0.0069
       N       E                     dE             d eps       ncg     rms          rms(c)
DAV:   1    -0.117146221766E+04   -0.44708E-02   -0.41424E-01  1872   0.113E+00    0.346E-01
RMM:   2    -0.117146298553E+04   -0.76787E-03   -0.16895E-02  1584   0.173E-01    0.333E-01
RMM:   3    -0.117146228727E+04    0.69826E-03   -0.59290E-04  1239   0.302E-02    0.291E-01
RMM:   4    -0.117146088227E+04    0.14050E-02   -0.39081E-03  1584   0.693E-02    0.140E-01
RMM:   5    -0.117146094273E+04   -0.60461E-04   -0.42824E-04  1320   0.253E-02
   9 F= -.11785938E+04 E0= -.11785907E+04  d E =0.162097E-03  mag=     0.0055
