       N       E                     dE             d eps       ncg     rms          rms(c)
DAV:   1     0.484527530057E+04    0.48453E+04   -0.17633E+05  1856   0.946E+02
DAV:   2    -0.390259468072E+02   -0.48843E+04   -0.44595E+04  2464   0.211E+02
DAV:   3    -0.119462674064E+04   -0.11556E+04   -0.11508E+04  2080   0.112E+02
DAV:   4    -0.124177062785E+04   -0.47144E+02   -0.46842E+02  1952   0.294E+01
DAV:   5    -0.124293996102E+04   -0.11693E+01   -0.11653E+01  2272   0.424E+00    0.728E+01
RMM:   6    -0.122764891777E+04    0.15291E+02   -0.88573E+00  1583   0.358E+00    0.578E+01
RMM:   7    -0.119278470573E+04    0.34864E+02   -0.87248E+01  1644   0.109E+01    0.308E+01
RMM:   8    -0.118322313352E+04    0.95616E+01   -0.14776E+01  1575   0.553E+00    0.255E+01
RMM:   9    -0.117840009695E+04    0.48230E+01   -0.28761E+01  1567   0.670E+00    0.168E+01
RMM:  10    -0.117822915606E+04    0.17094E+00   -0.72554E+00  1577   0.385E+00    0.109E+01
RMM:  11    -0.117896115038E+04   -0.73199E+00   -0.26285E+00  1731   0.206E+00    0.832E+00
RMM:  12    -0.117843650792E+04    0.52464E+00   -0.35157E-01  1689   0.893E-01    0.726E+00
RMM:  13    -0.117773777380E+04    0.69873E+00   -0.87331E-01  1537   0.115E+00    0.457E+00
RMM:  14    -0.117767453344E+04    0.63240E-01   -0.94472E-01  1575   0.123E+00    0.161E+00
RMM:  15    -0.117768318002E+04   -0.86466E-02   -0.10676E-01  1551   0.510E-01    0.104E+00
RMM:  16    -0.117768084688E+04    0.23331E-02   -0.64879E-02  1554   0.346E-01    0.703E-01
RMM:  17    -0.117767938018E+04    0.14667E-02   -0.16081E-02  1592   0.177E-01    0.568E-01
RMM:  18    -0.117768145329E+04   -0.20731E-02   -0.11162E-02  1632   0.131E-01    0.441E-01
RMM:  19    -0.117768154810E+04   -0.94808E-04   -0.15549E-02  1584   0.159E-01    0.254E-01
RMM:  20    -0.117768087364E+04    0.67446E-03   -0.19677E-03  1566   0.620E-02    0.180E-01
RMM:  21    -0.117768075282E+04    0.12082E-03   -0.89157E-04  1630   0.332E-02    0.172E-01
RMM:  22    -0.117768075187E+04    0.95041E-06   -0.47782E-04  1704   0.215E-02    0.220E-01
RMM:  23    -0.117768070712E+04    0.44752E-04   -0.21504E-04  1674   0.126E-02    0.175E-01
RMM:  24    -0.117768071089E+04   -0.37650E-05   -0.17264E-04  1799   0.817E-03    0.169E-01
RMM:  25    -0.117768066783E+04    0.43055E-04   -0.16165E-04  1695   0.101E-02    0.742E-02
RMM:  26    -0.117768064144E+04    0.26393E-04   -0.29721E-04  2014   0.170E-02    0.286E-02
RMM:  27    -0.117768065759E+04   -0.16153E-04   -0.84589E-05  1629   0.809E-03    0.178E-02
RMM:  28    -0.117768066003E+04   -0.24410E-05   -0.61302E-05  1708   0.493E-03    0.257E-02
RMM:  29    -0.117768066596E+04   -0.59332E-05   -0.60653E-05  1262   0.245E-03    0.447E-02
RMM:  30    -0.117768067039E+04   -0.44269E-05   -0.42514E-05  1211   0.238E-03    0.592E-02
RMM:  31    -0.117768067407E+04   -0.36797E-05   -0.35546E-05  1071   0.142E-03    0.648E-02
RMM:  32    -0.117768067690E+04   -0.28255E-05   -0.27032E-05  1045   0.978E-04    0.748E-02
RMM:  33    -0.117768067912E+04   -0.22203E-05   -0.22828E-05  1040   0.913E-04    0.839E-02
RMM:  34    -0.117768068099E+04   -0.18768E-05   -0.18320E-05  1031   0.880E-04    0.992E-02
RMM:  35    -0.117768068254E+04   -0.15417E-05   -0.15368E-05   817   0.620E-04    0.108E-01
RMM:  36    -0.117768068352E+04   -0.98598E-06   -0.11683E-05   857   0.658E-04    0.102E-01
RMM:  37    -0.117768068436E+04   -0.83918E-06   -0.10181E-05  1024   0.938E-04    0.838E-02
RMM:  38    -0.117768068501E+04   -0.65313E-06   -0.78983E-06   869   0.600E-04
   1 F= -.11849747E+04 E0= -.11849747E+04  d E =-.118497E+04  mag=    -1.0001
       N       E                     dE             d eps       ncg     rms          rms(c)
DAV:   1    -0.117767499136E+04    0.56930E-02   -0.46655E-01  1632   0.119E+00    0.383E-01
RMM:   2    -0.117767674603E+04   -0.17547E-02   -0.19384E-02  1742   0.212E-01    0.333E-01
RMM:   3    -0.117767677803E+04   -0.32001E-04   -0.38344E-03  1692   0.895E-02    0.243E-01
RMM:   4    -0.117767678746E+04   -0.94288E-05   -0.19999E-03  1625   0.590E-02    0.116E-01
RMM:   5    -0.117767675260E+04    0.34860E-04   -0.27932E-04  1721   0.249E-02    0.598E-02
RMM:   6    -0.117767674138E+04    0.11222E-04   -0.88935E-05  1658   0.124E-02    0.296E-02
RMM:   7    -0.117767673776E+04    0.36129E-05   -0.36058E-05  1795   0.765E-03    0.154E-02
RMM:   8    -0.117767673755E+04    0.21175E-06   -0.15347E-05  1604   0.484E-03    0.872E-03
RMM:   9    -0.117767673701E+04    0.53961E-06   -0.26620E-06  1091   0.234E-03
   2 F= -.11849718E+04 E0= -.11849718E+04  d E =0.287513E-02  mag=    -1.0000
       N       E                     dE             d eps       ncg     rms          rms(c)
DAV:   1    -0.117768009323E+04   -0.33557E-02   -0.24140E-01  1664   0.860E-01    0.265E-01
RMM:   2    -0.117768093058E+04   -0.83735E-03   -0.94231E-03  1730   0.150E-01    0.231E-01
RMM:   3    -0.117768091191E+04    0.18675E-04   -0.17372E-03  1662   0.621E-02    0.170E-01
RMM:   4    -0.117768094885E+04   -0.36947E-04   -0.12921E-03  1599   0.472E-02    0.654E-02
RMM:   5    -0.117768090166E+04    0.47194E-04   -0.15876E-04  1591   0.196E-02    0.411E-02
RMM:   6    -0.117768088586E+04    0.15804E-04   -0.85748E-05  1565   0.115E-02    0.168E-02
RMM:   7    -0.117768088549E+04    0.36125E-06   -0.19780E-05  1776   0.606E-03    0.959E-03
RMM:   8    -0.117768088485E+04    0.64391E-06   -0.95158E-06  1527   0.385E-03
   3 F= -.11849752E+04 E0= -.11849752E+04  d E =-.496103E-03  mag=    -1.0000
