       N       E                     dE             d eps       ncg     rms          rms(c)
DAV:   1     0.485467632963E+04    0.48547E+04   -0.17106E+05  1872   0.902E+02
DAV:   2    -0.565713253207E+02   -0.49112E+04   -0.44545E+04  2520   0.205E+02
DAV:   3    -0.118968000023E+04   -0.11331E+04   -0.11290E+04  2160   0.109E+02
DAV:   4    -0.123430271360E+04   -0.44623E+02   -0.44410E+02  2052   0.284E+01
DAV:   5    -0.123544085209E+04   -0.11381E+01   -0.11357E+01  2340   0.419E+00    0.759E+01
RMM:   6    -0.122058347371E+04    0.14857E+02   -0.75121E+00  1584   0.313E+00    0.661E+01
RMM:   7    -0.117688792036E+04    0.43696E+02   -0.91715E+01  1585   0.104E+01    0.514E+01
RMM:   8    -0.117354936271E+04    0.33386E+01   -0.39048E+00  1610   0.237E+00    0.516E+01
RMM:   9    -0.117278895561E+04    0.76041E+00   -0.40958E-01  1629   0.803E-01    0.506E+01
RMM:  10    -0.115460876956E+04    0.18180E+02   -0.54967E+01  1584   0.845E+00    0.331E+01
RMM:  11    -0.115794778921E+04   -0.33390E+01   -0.34467E+00  1593   0.223E+00    0.294E+01
RMM:  12    -0.116858546292E+04   -0.10638E+02   -0.14427E+01  1584   0.324E+00    0.161E+01
RMM:  13    -0.116868265207E+04   -0.97189E-01   -0.93271E-01  1636   0.833E-01    0.146E+01
RMM:  14    -0.116816634877E+04    0.51630E+00   -0.24372E-01  1596   0.435E-01    0.120E+01
RMM:  15    -0.116613234557E+04    0.20340E+01   -0.44126E+00  1587   0.171E+00    0.176E+01
RMM:  16    -0.116401777654E+04    0.21146E+01   -0.10522E+00  1594   0.871E-01    0.197E+01
RMM:  17    -0.116453556838E+04   -0.51779E+00   -0.50774E-01  1584   0.763E-01    0.181E+01
RMM:  18    -0.116492465005E+04   -0.38908E+00   -0.55173E-01  1584   0.632E-01    0.148E+01
RMM:  19    -0.116508466910E+04   -0.16002E+00   -0.86233E-02  1619   0.246E-01    0.132E+01
RMM:  20    -0.116614530406E+04   -0.10606E+01   -0.27532E-01  1586   0.499E-01    0.898E+00
RMM:  21    -0.116651846102E+04   -0.37316E+00   -0.26846E-01  1585   0.526E-01    0.529E+00
RMM:  22    -0.116634116350E+04    0.17730E+00   -0.49758E-02  1588   0.201E-01    0.301E+00
RMM:  23    -0.116671237426E+04   -0.37121E+00   -0.35581E-02  1609   0.173E-01    0.171E+00
RMM:  24    -0.116691778187E+04   -0.20541E+00   -0.31693E-02  1585   0.173E-01    0.936E-01
RMM:  25    -0.116722740126E+04   -0.30962E+00   -0.82736E-02  1589   0.240E-01    0.814E-01
RMM:  26    -0.116714976173E+04    0.77640E-01   -0.49101E-03  1562   0.755E-02    0.103E+00
RMM:  27    -0.116717184823E+04   -0.22087E-01   -0.65492E-03  1515   0.800E-02    0.797E-01
RMM:  28    -0.116716815657E+04    0.36917E-02   -0.81820E-04  1231   0.263E-02    0.744E-01
RMM:  29    -0.116719259377E+04   -0.24437E-01   -0.23632E-03  1269   0.469E-02    0.804E-01
RMM:  30    -0.116725714328E+04   -0.64550E-01   -0.36850E-03  1360   0.575E-02    0.564E-01
RMM:  31    -0.116734060828E+04   -0.83465E-01   -0.19691E-02  1476   0.121E-01    0.278E-01
RMM:  32    -0.116737108425E+04   -0.30476E-01   -0.96915E-03  1316   0.795E-02    0.328E-01
RMM:  33    -0.116737131501E+04   -0.23076E-03   -0.25993E-03  1209   0.437E-02    0.297E-01
RMM:  34    -0.116739341848E+04   -0.22103E-01   -0.12110E-02  1350   0.877E-02    0.404E-01
RMM:  35    -0.116739604583E+04   -0.26273E-02   -0.12620E-03  1148   0.261E-02    0.354E-01
RMM:  36    -0.116740071392E+04   -0.46681E-02   -0.70282E-04  1120   0.214E-02    0.385E-01
RMM:  37    -0.116742545356E+04   -0.24740E-01   -0.25622E-02  1367   0.986E-02    0.180E-01
RMM:  38    -0.116742823381E+04   -0.27802E-02   -0.60189E-03  1181   0.369E-02    0.118E-01
RMM:  39    -0.116742848077E+04   -0.24696E-03   -0.76865E-04  1037   0.110E-02    0.104E-01
RMM:  40    -0.116742861547E+04   -0.13470E-03   -0.15445E-04  1031   0.814E-03    0.941E-02
RMM:  41    -0.116742844393E+04    0.17154E-03   -0.12939E-04   903   0.821E-03    0.126E-01
RMM:  42    -0.116742739323E+04    0.10507E-02   -0.11408E-03   903   0.178E-02    0.147E-01
RMM:  43    -0.116742824875E+04   -0.85552E-03   -0.52775E-04   766   0.133E-02    0.127E-01
RMM:  44    -0.116742843636E+04   -0.18762E-03   -0.17672E-04   779   0.760E-03    0.976E-02
RMM:  45    -0.116742861727E+04   -0.18091E-03   -0.12406E-04   755   0.572E-03    0.654E-02
RMM:  46    -0.116742870937E+04   -0.92098E-04   -0.61700E-05   744   0.468E-03
   1 F= -.11747143E+04 E0= -.11747067E+04  d E =-.117471E+04  mag=    -1.7282
       N       E                     dE             d eps       ncg     rms          rms(c)
DAV:   1    -0.116742703841E+04    0.15789E-02   -0.46543E-01  1620   0.106E+00    0.797E-01
RMM:   2    -0.116742832638E+04   -0.12880E-02   -0.15363E-02  1585   0.164E-01    0.706E-01
RMM:   3    -0.116742797836E+04    0.34802E-03   -0.11399E-03  1564   0.411E-02    0.527E-01
RMM:   4    -0.116742785511E+04    0.12325E-03   -0.26568E-03  1585   0.559E-02    0.109E-01
RMM:   5    -0.116742773866E+04    0.11645E-03   -0.93189E-05  1066   0.123E-02    0.722E-02
RMM:   6    -0.116742767823E+04    0.60431E-04   -0.97102E-05  1060   0.988E-03
   2 F= -.11747133E+04 E0= -.11747058E+04  d E =0.951405E-03  mag=    -1.7413
       N       E                     dE             d eps       ncg     rms          rms(c)
DAV:   1    -0.116742947751E+04   -0.17389E-02   -0.18442E-01  1692   0.669E-01    0.503E-01
RMM:   2    -0.116742976793E+04   -0.29042E-03   -0.53580E-03  1585   0.101E-01    0.435E-01
RMM:   3    -0.116742937835E+04    0.38958E-03   -0.56490E-04  1311   0.289E-02    0.303E-01
RMM:   4    -0.116742911663E+04    0.26171E-03   -0.14280E-03  1579   0.407E-02    0.772E-02
RMM:   5    -0.116742937504E+04   -0.25841E-03   -0.32882E-04  1071   0.130E-02    0.446E-02
RMM:   6    -0.116742936838E+04    0.66610E-05   -0.54308E-05  1023   0.713E-03
   3 F= -.11747150E+04 E0= -.11747074E+04  d E =-.687528E-03  mag=    -1.7383
