       N       E                     dE             d eps       ncg     rms          rms(c)
DAV:   1     0.469505371128E+04    0.46951E+04   -0.17979E+05  1944   0.925E+02
DAV:   2    -0.891502619349E+02   -0.47842E+04   -0.43745E+04  2520   0.206E+02
DAV:   3    -0.119970500907E+04   -0.11106E+04   -0.11045E+04  2088   0.108E+02
DAV:   4    -0.124447649555E+04   -0.44771E+02   -0.44500E+02  2016   0.285E+01
DAV:   5    -0.124562449743E+04   -0.11480E+01   -0.11441E+01  2304   0.417E+00    0.699E+01
RMM:   6    -0.123071430680E+04    0.14910E+02   -0.34614E+01  1585   0.559E+00    0.618E+01
RMM:   7    -0.121580965380E+04    0.14905E+02   -0.58077E+00  1584   0.272E+00    0.467E+01
RMM:   8    -0.119193148565E+04    0.23878E+02   -0.26396E+01  1584   0.596E+00    0.318E+01
RMM:   9    -0.117736696675E+04    0.14565E+02   -0.22173E+01  1584   0.544E+00    0.222E+01
RMM:  10    -0.117620291269E+04    0.11641E+01   -0.17708E+01  1584   0.480E+00    0.111E+01
RMM:  11    -0.117681645259E+04   -0.61354E+00   -0.25079E+00  1591   0.191E+00    0.759E+00
RMM:  12    -0.117632671925E+04    0.48973E+00   -0.73816E-01  1584   0.888E-01    0.478E+00
RMM:  13    -0.117591301125E+04    0.41371E+00   -0.95274E-01  1584   0.110E+00    0.174E+00
RMM:  14    -0.117585930382E+04    0.53707E-01   -0.12504E-01  1584   0.405E-01    0.106E+00
RMM:  15    -0.117585348495E+04    0.58189E-02   -0.33030E-02  1609   0.180E-01    0.464E-01
RMM:  16    -0.117585378382E+04   -0.29887E-03   -0.74984E-03  1586   0.104E-01    0.302E-01
RMM:  17    -0.117585348780E+04    0.29603E-03   -0.26692E-03  1583   0.605E-02    0.174E-01
RMM:  18    -0.117585347595E+04    0.11843E-04   -0.53638E-04  1283   0.254E-02
   1 F= -.11830202E+04 E0= -.11830202E+04  d E =-.118302E+04  mag=     0.9933
       N       E                     dE             d eps       ncg     rms          rms(c)
DAV:   1    -0.117584752159E+04    0.59662E-02   -0.19980E+00  1692   0.209E+00    0.696E-01
RMM:   2    -0.117585235093E+04   -0.48293E-02   -0.59833E-02  1584   0.312E-01    0.692E-01
RMM:   3    -0.117585183758E+04    0.51335E-03   -0.27880E-03  1635   0.585E-02    0.663E-01
RMM:   4    -0.117585063521E+04    0.12024E-02   -0.33671E-03  1586   0.665E-02    0.321E-01
RMM:   5    -0.117585086306E+04   -0.22785E-03   -0.19459E-03  1584   0.506E-02    0.968E-02
RMM:   6    -0.117585077105E+04    0.92010E-04   -0.11375E-04  1041   0.135E-02
   2 F= -.11830185E+04 E0= -.11830185E+04  d E =0.165824E-02  mag=     0.9995
       N       E                     dE             d eps       ncg     rms          rms(c)
DAV:   1    -0.117585472129E+04   -0.38582E-02   -0.60484E-01  1656   0.115E+00    0.381E-01
RMM:   2    -0.117585589898E+04   -0.11777E-02   -0.15861E-02  1584   0.161E-01    0.385E-01
RMM:   3    -0.117585574244E+04    0.15654E-03   -0.64505E-04  1239   0.287E-02    0.377E-01
RMM:   4    -0.117585528778E+04    0.45466E-03   -0.65814E-04  1442   0.305E-02    0.232E-01
RMM:   5    -0.117585530528E+04   -0.17493E-04   -0.14747E-03  1580   0.435E-02    0.636E-02
RMM:   6    -0.117585527715E+04    0.28127E-04   -0.37182E-05   999   0.872E-03
   3 F= -.11830224E+04 E0= -.11830224E+04  d E =-.227280E-02  mag=     1.0000
       N       E                     dE             d eps       ncg     rms          rms(c)
DAV:   1    -0.117585578652E+04   -0.48125E-03   -0.97357E-01  1656   0.140E+00    0.435E-01
RMM:   2    -0.117585696383E+04   -0.11773E-02   -0.19662E-02  1584   0.179E-01    0.413E-01
RMM:   3    -0.117585643175E+04    0.53209E-03   -0.84251E-04  1347   0.363E-02    0.366E-01
RMM:   4    -0.117585555847E+04    0.87327E-03   -0.55215E-03  1584   0.827E-02    0.100E-01
RMM:   5    -0.117585558514E+04   -0.26670E-04   -0.15350E-04  1072   0.174E-02
   4 F= -.11830231E+04 E0= -.11830231E+04  d E =-.643150E-03  mag=     1.0000
       N       E                     dE             d eps       ncg     rms          rms(c)
DAV:   1    -0.117585659783E+04   -0.10394E-02   -0.18861E-01  1728   0.614E-01    0.182E-01
RMM:   2    -0.117585673928E+04   -0.14145E-03   -0.36470E-03  1584   0.758E-02    0.172E-01
RMM:   3    -0.117585657618E+04    0.16310E-03   -0.14986E-04  1034   0.163E-02    0.152E-01
RMM:   4    -0.117585633526E+04    0.24092E-03   -0.15638E-03  1584   0.441E-02    0.432E-02
RMM:   5    -0.117585633872E+04   -0.34613E-05   -0.28321E-05   986   0.828E-03
   5 F= -.11830237E+04 E0= -.11830237E+04  d E =-.124936E-02  mag=     1.0000
       N       E                     dE             d eps       ncg     rms          rms(c)
DAV:   1    -0.117585660636E+04   -0.27111E-03   -0.31123E-01  1728   0.897E-01    0.143E-01
RMM:   2    -0.117585736433E+04   -0.75797E-03   -0.95209E-03  1584   0.133E-01    0.131E-01
RMM:   3    -0.117585720350E+04    0.16083E-03   -0.34001E-04  1140   0.238E-02    0.119E-01
RMM:   4    -0.117585702178E+04    0.18173E-03   -0.93800E-04  1550   0.353E-02    0.514E-02
RMM:   5    -0.117585702764E+04   -0.58626E-05   -0.57748E-05  1013   0.106E-02
   6 F= -.11830245E+04 E0= -.11830245E+04  d E =-.780291E-03  mag=     1.0000
       N       E                     dE             d eps       ncg     rms          rms(c)
DAV:   1    -0.117585708283E+04   -0.61056E-04   -0.84641E-03  1728   0.148E-01    0.242E-02
RMM:   2    -0.117585710515E+04   -0.22314E-04   -0.22944E-04  1048   0.208E-02
   7 F= -.11830245E+04 E0= -.11830245E+04  d E =-.842579E-03  mag=     1.0000
