       N       E                     dE             d eps       ncg     rms          rms(c)
DAV:   1     0.506078883257E+04    0.50608E+04   -0.17655E+05  1872   0.931E+02
DAV:   2    -0.149790715118E+02   -0.50758E+04   -0.46639E+04  2520   0.212E+02
DAV:   3    -0.119614201985E+04   -0.11812E+04   -0.11763E+04  2196   0.112E+02
DAV:   4    -0.124472381205E+04   -0.48582E+02   -0.48273E+02  2016   0.292E+01
DAV:   5    -0.124613283277E+04   -0.14090E+01   -0.14057E+01  2556   0.432E+00    0.705E+01
RMM:   6    -0.123390362693E+04    0.12229E+02   -0.72172E+00  1584   0.314E+00    0.604E+01
RMM:   7    -0.118899456846E+04    0.44909E+02   -0.79412E+01  1587   0.102E+01    0.395E+01
RMM:   8    -0.118314532118E+04    0.58492E+01   -0.23774E+01  1590   0.558E+00    0.240E+01
RMM:   9    -0.118542492390E+04   -0.22796E+01   -0.25113E+01  1588   0.564E+00    0.120E+01
RMM:  10    -0.118267678390E+04    0.27481E+01   -0.45843E+00  1584   0.244E+00    0.471E+00
RMM:  11    -0.118256981569E+04    0.10697E+00   -0.67576E-01  1599   0.932E-01    0.294E+00
RMM:  12    -0.118248384984E+04    0.85966E-01   -0.34902E-01  1589   0.594E-01    0.862E-01
RMM:  13    -0.118248584128E+04   -0.19914E-02   -0.16925E-01  1586   0.465E-01    0.568E-01
RMM:  14    -0.118247738500E+04    0.84563E-02   -0.30734E-02  1589   0.196E-01    0.204E-01
RMM:  15    -0.118247726602E+04    0.11899E-03   -0.45323E-03  1674   0.669E-02    0.323E-01
RMM:  16    -0.118247700635E+04    0.25967E-03   -0.10039E-03  1442   0.337E-02    0.140E-01
RMM:  17    -0.118247754238E+04   -0.53604E-03   -0.87530E-04  1574   0.321E-02    0.136E-01
RMM:  18    -0.118247704094E+04    0.50144E-03   -0.19418E-03  1575   0.497E-02    0.327E-02
RMM:  19    -0.118247711111E+04   -0.70168E-04   -0.55864E-05  1006   0.997E-03
   1 F= -.11896421E+04 E0= -.11896421E+04  d E =-.118964E+04  mag=     0.0009
       N       E                     dE             d eps       ncg     rms          rms(c)
DAV:   1    -0.118247579122E+04    0.12497E-02   -0.75730E-01  1656   0.128E+00    0.497E-01
RMM:   2    -0.118247774939E+04   -0.19582E-02   -0.26814E-02  1598   0.203E-01    0.517E-01
RMM:   3    -0.118247752923E+04    0.22016E-03   -0.13206E-03  1572   0.429E-02    0.530E-01
RMM:   4    -0.118247766973E+04   -0.14050E-03   -0.35835E-04  1218   0.217E-02    0.505E-01
RMM:   5    -0.118248049587E+04   -0.28261E-02   -0.61481E-03  1601   0.751E-02    0.520E-01
RMM:   6    -0.118248342123E+04   -0.29254E-02   -0.34215E-03  1632   0.582E-02    0.733E-01
RMM:   7    -0.118248483439E+04   -0.14132E-02   -0.84489E-04  1521   0.296E-02    0.825E-01
RMM:   8    -0.118248088804E+04    0.39464E-02   -0.23075E-03  1560   0.484E-02    0.603E-01
RMM:   9    -0.118247738967E+04    0.34984E-02   -0.92162E-03  1598   0.963E-02    0.198E-01
RMM:  10    -0.118247727427E+04    0.11540E-03   -0.11816E-03  1549   0.343E-02    0.147E-01
RMM:  11    -0.118247732473E+04   -0.50461E-04   -0.66302E-05  1048   0.116E-02
   2 F= -.11896427E+04 E0= -.11896427E+04  d E =-.607284E-03  mag=    -0.0001
       N       E                     dE             d eps       ncg     rms          rms(c)
DAV:   1    -0.118247792689E+04   -0.65262E-03   -0.13762E-01  1800   0.548E-01    0.197E-01
RMM:   2    -0.118247828193E+04   -0.35504E-03   -0.51412E-03  1612   0.936E-02    0.202E-01
RMM:   3    -0.118247822346E+04    0.58461E-04   -0.21725E-04  1121   0.185E-02
   3 F= -.11896434E+04 E0= -.11896434E+04  d E =-.134214E-02  mag=    -0.0000
       N       E                     dE             d eps       ncg     rms          rms(c)
DAV:   1    -0.118247521629E+04    0.30656E-02   -0.54482E-01  1728   0.118E+00    0.242E-01
RMM:   2    -0.118247636068E+04   -0.11444E-02   -0.14586E-02  1590   0.183E-01    0.216E-01
RMM:   3    -0.118247599129E+04    0.36939E-03   -0.62360E-04  1328   0.344E-02    0.188E-01
RMM:   4    -0.118247545485E+04    0.53644E-03   -0.41528E-03  1582   0.730E-02    0.652E-02
RMM:   5    -0.118247538135E+04    0.73502E-04   -0.63094E-05  1016   0.132E-02
   4 F= -.11896410E+04 E0= -.11896410E+04  d E =0.242120E-02  mag=    -0.0000
       N       E                     dE             d eps       ncg     rms          rms(c)
DAV:   1    -0.118247835321E+04   -0.28984E-02   -0.24672E-01  1656   0.794E-01    0.159E-01
RMM:   2    -0.118247881695E+04   -0.46374E-03   -0.63695E-03  1584   0.118E-01    0.144E-01
RMM:   3    -0.118247872444E+04    0.92507E-04   -0.27588E-04  1137   0.234E-02
   5 F= -.11896440E+04 E0= -.11896440E+04  d E =-.634989E-03  mag=     0.0000
