       N       E                     dE             d eps       ncg     rms          rms(c)
DAV:   1     0.467349134597E+04    0.46735E+04   -0.17289E+05  1908   0.903E+02
DAV:   2    -0.972738593882E+02   -0.47708E+04   -0.43319E+04  2556   0.212E+02
DAV:   3    -0.118269419681E+04   -0.10854E+04   -0.10803E+04  2088   0.109E+02
DAV:   4    -0.123513464204E+04   -0.52440E+02   -0.52175E+02  2196   0.348E+01
DAV:   5    -0.123653915692E+04   -0.14045E+01   -0.13973E+01  2124   0.472E+00    0.637E+01
RMM:   6    -0.121804782391E+04    0.18491E+02   -0.92419E+00  1863   0.377E+00    0.522E+01
RMM:   7    -0.119632372348E+04    0.21724E+02   -0.12818E+02  1943   0.132E+01    0.397E+01
RMM:   8    -0.118660497731E+04    0.97187E+01   -0.54233E+00  2006   0.654E+00    0.343E+01
RMM:   9    -0.117705650176E+04    0.95485E+01   -0.30474E+00  2139   0.193E+00    0.283E+01
RMM:  10    -0.116950237880E+04    0.75541E+01   -0.11517E+01  1763   0.393E+00    0.213E+01
RMM:  11    -0.117423743019E+04   -0.47351E+01   -0.20935E+01  1943   0.683E+00    0.170E+01
RMM:  12    -0.117168416537E+04    0.25533E+01   -0.17353E+00  1979   0.291E+00    0.131E+01
RMM:  13    -0.116587341891E+04    0.58107E+01   -0.46465E+00  1965   0.240E+00    0.563E+00
RMM:  14    -0.116579707071E+04    0.76348E-01   -0.39138E-01  1914   0.129E+00    0.454E+00
RMM:  15    -0.116579849778E+04   -0.14271E-02   -0.21480E-01  1900   0.572E-01    0.492E+00
RMM:  16    -0.116578620417E+04    0.12294E-01   -0.25010E-02  1966   0.332E-01    0.488E+00
RMM:  17    -0.116580372057E+04   -0.17516E-01   -0.49570E-02  1919   0.225E-01    0.423E+00
RMM:  18    -0.116579017375E+04    0.13547E-01   -0.45228E-03  1713   0.138E-01    0.428E+00
RMM:  19    -0.116510331321E+04    0.68686E+00   -0.96053E-01  1697   0.908E-01    0.250E+00
RMM:  20    -0.116427423133E+04    0.82908E+00   -0.56445E-01  1865   0.110E+00    0.224E+00
RMM:  21    -0.116469914183E+04   -0.42491E+00   -0.56298E-02  1908   0.308E-01    0.206E+00
RMM:  22    -0.116524865992E+04   -0.54952E+00   -0.61322E-02  1779   0.272E-01    0.157E+00
RMM:  23    -0.116548027938E+04   -0.23162E+00   -0.45048E-02  1873   0.295E-01    0.143E+00
RMM:  24    -0.116557858003E+04   -0.98301E-01   -0.19008E-02  1723   0.178E-01    0.135E+00
RMM:  25    -0.116545224651E+04    0.12633E+00   -0.19590E-02  1737   0.179E-01    0.984E-01
RMM:  26    -0.116516790070E+04    0.28435E+00   -0.55062E-02  1573   0.234E-01    0.805E-01
RMM:  27    -0.116493715122E+04    0.23075E+00   -0.35152E-02  1441   0.203E-01    0.861E-01
RMM:  28    -0.116480396229E+04    0.13319E+00   -0.16406E-02  1392   0.127E-01    0.899E-01
RMM:  29    -0.116471692897E+04    0.87033E-01   -0.53287E-03  1266   0.774E-02    0.923E-01
RMM:  30    -0.116468181377E+04    0.35115E-01   -0.20528E-03  1192   0.553E-02    0.947E-01
RMM:  31    -0.116470266532E+04   -0.20852E-01   -0.59340E-04  1122   0.314E-02    0.933E-01
RMM:  32    -0.116483369995E+04   -0.13103E+00   -0.55760E-03  1257   0.655E-02    0.929E-01
RMM:  33    -0.116489318334E+04   -0.59483E-01   -0.22071E-03  1191   0.627E-02    0.852E-01
RMM:  34    -0.116550449405E+04   -0.61131E+00   -0.18762E-01  1532   0.316E-01    0.118E+00
RMM:  35    -0.116549212656E+04    0.12367E-01   -0.17550E-02  1318   0.270E-01    0.586E-01
RMM:  36    -0.116545083009E+04    0.41296E-01   -0.25386E-03  1216   0.416E-02    0.612E-01
RMM:  37    -0.116523204619E+04    0.21878E+00   -0.25280E-02  1395   0.130E-01    0.635E-01
RMM:  38    -0.116538337855E+04   -0.15133E+00   -0.12632E-02  1298   0.114E-01    0.601E-01
RMM:  39    -0.116544191860E+04   -0.58540E-01   -0.48912E-03  1296   0.802E-02    0.588E-01
RMM:  40    -0.116562010426E+04   -0.17819E+00   -0.35617E-02  1439   0.150E-01    0.770E-01
RMM:  41    -0.116563786161E+04   -0.17757E-01   -0.44692E-03  1234   0.116E-01    0.491E-01
RMM:  42    -0.116576120913E+04   -0.12335E+00   -0.33502E-02  1354   0.135E-01    0.728E-01
RMM:  43    -0.116578824284E+04   -0.27034E-01   -0.86764E-03  1257   0.125E-01    0.487E-01
RMM:  44    -0.116581611336E+04   -0.27871E-01   -0.99179E-03  1251   0.716E-02    0.626E-01
RMM:  45    -0.116584265015E+04   -0.26537E-01   -0.83394E-03  1247   0.927E-02    0.524E-01
RMM:  46    -0.116583565587E+04    0.69943E-02   -0.13019E-03  1173   0.355E-02    0.512E-01
RMM:  47    -0.116582679881E+04    0.88571E-02   -0.20996E-04  1093   0.195E-02    0.570E-01
RMM:  48    -0.116587611699E+04   -0.49318E-01   -0.21710E-02  1285   0.103E-01    0.754E-01
RMM:  49    -0.116588073914E+04   -0.46221E-02   -0.25456E-03  1191   0.784E-02    0.620E-01
RMM:  50    -0.116590148417E+04   -0.20745E-01   -0.16368E-02  1246   0.760E-02    0.741E-01
RMM:  51    -0.116583587368E+04    0.65610E-01   -0.52827E-02  1312   0.163E-01    0.721E-01
RMM:  52    -0.116585162426E+04   -0.15751E-01   -0.25383E-03  1173   0.673E-02    0.688E-01
RMM:  53    -0.116585203582E+04   -0.41156E-03   -0.91533E-04  1118   0.291E-02    0.821E-01
RMM:  54    -0.116585270844E+04   -0.67262E-03   -0.12108E-04  1039   0.227E-02    0.812E-01
RMM:  55    -0.116585671117E+04   -0.40027E-02   -0.27390E-04   992   0.151E-02    0.826E-01
RMM:  56    -0.116588442246E+04   -0.27711E-01   -0.96151E-03  1217   0.681E-02    0.908E-01
RMM:  57    -0.116588763536E+04   -0.32129E-02   -0.13411E-03  1080   0.501E-02    0.805E-01
RMM:  58    -0.116588902373E+04   -0.13884E-02   -0.63519E-04   985   0.158E-02    0.827E-01
RMM:  59    -0.116588874770E+04    0.27603E-03   -0.72856E-05   890   0.171E-02    0.805E-01
RMM:  60    -0.116588883158E+04   -0.83887E-04   -0.33221E-05   747   0.528E-03
   1 F= -.11729566E+04 E0= -.11729566E+04  d E =-.117296E+04  mag=     0.0003
       N       E                     dE             d eps       ncg     rms          rms(c)
DAV:   1    -0.116591227366E+04   -0.23526E-01   -0.90983E-01  1728   0.151E+00    0.852E-01
RMM:   2    -0.116591474123E+04   -0.24676E-02   -0.29398E-02  1987   0.294E-01    0.852E-01
RMM:   3    -0.116591466599E+04    0.75239E-04   -0.26908E-03  1696   0.106E-01    0.798E-01
RMM:   4    -0.116591370327E+04    0.96272E-03   -0.19336E-03  1797   0.698E-02    0.514E-01
RMM:   5    -0.116591352247E+04    0.18080E-03   -0.13136E-03  1636   0.760E-02    0.332E-01
RMM:   6    -0.116591365016E+04   -0.12769E-03   -0.96810E-04  1578   0.690E-02    0.950E-02
RMM:   7    -0.116591357217E+04    0.77995E-04   -0.18285E-04  1127   0.474E-02
   2 F= -.11729813E+04 E0= -.11729813E+04  d E =-.247620E-01  mag=     0.0003
       N       E                     dE             d eps       ncg     rms          rms(c)
DAV:   1    -0.116591943375E+04   -0.57836E-02   -0.47130E-01  1800   0.111E+00    0.198E-01
RMM:   2    -0.116592031891E+04   -0.88516E-03   -0.14035E-02  1913   0.202E-01    0.251E-01
RMM:   3    -0.116592042036E+04   -0.10145E-03   -0.14223E-03  1520   0.102E-01    0.264E-01
RMM:   4    -0.116592031843E+04    0.10193E-03   -0.21007E-04  1135   0.363E-02    0.270E-01
RMM:   5    -0.116591987703E+04    0.44140E-03   -0.34337E-04  1280   0.350E-02    0.240E-01
RMM:   6    -0.116591952616E+04    0.35087E-03   -0.72355E-04  1558   0.530E-02    0.203E-01
RMM:   7    -0.116591942727E+04    0.98896E-04   -0.32745E-04  1273   0.412E-02
   3 F= -.11729872E+04 E0= -.11729871E+04  d E =-.306005E-01  mag=     0.0005
