       N       E                     dE             d eps       ncg     rms          rms(c)
DAV:   1     0.474044955537E+04    0.47404E+04   -0.17399E+05  1856   0.932E+02
DAV:   2    -0.643686237060E+02   -0.48048E+04   -0.43612E+04  2432   0.211E+02
DAV:   3    -0.118104780615E+04   -0.11167E+04   -0.11082E+04  1984   0.111E+02
DAV:   4    -0.122830607363E+04   -0.47258E+02   -0.46998E+02  1952   0.300E+01
DAV:   5    -0.122948686879E+04   -0.11808E+01   -0.11781E+01  2304   0.437E+00    0.664E+01
RMM:   6    -0.121071107726E+04    0.18776E+02   -0.16799E+01  1636   0.504E+00    0.506E+01
RMM:   7    -0.119214495193E+04    0.18566E+02   -0.19207E+01  1567   0.528E+00    0.390E+01
RMM:   8    -0.116581686713E+04    0.26328E+02   -0.38148E+01  1578   0.779E+00    0.246E+01
RMM:   9    -0.116011815652E+04    0.56987E+01   -0.21944E+01  1542   0.651E+00    0.151E+01
RMM:  10    -0.116085174266E+04   -0.73359E+00   -0.77358E+00  1576   0.391E+00    0.796E+00
RMM:  11    -0.116106509595E+04   -0.21335E+00   -0.11495E+00  1795   0.169E+00    0.654E+00
RMM:  12    -0.116048194578E+04    0.58315E+00   -0.16197E+00  1543   0.169E+00    0.996E-01
RMM:  13    -0.116048736520E+04   -0.54194E-02   -0.15064E-01  1598   0.641E-01    0.667E-01
RMM:  14    -0.116049285773E+04   -0.54925E-02   -0.32186E-02  1668   0.266E-01    0.464E-01
RMM:  15    -0.116049444208E+04   -0.15843E-02   -0.94020E-03  1685   0.161E-01    0.403E-01
RMM:  16    -0.116049637289E+04   -0.19308E-02   -0.58174E-03  1613   0.102E-01    0.239E-01
RMM:  17    -0.116049724276E+04   -0.86988E-03   -0.12887E-03  1623   0.544E-02    0.212E-01
RMM:  18    -0.116049836290E+04   -0.11201E-02   -0.20659E-03  1584   0.598E-02    0.185E-01
RMM:  19    -0.116049889831E+04   -0.53541E-03   -0.58948E-04  1607   0.292E-02    0.136E-01
RMM:  20    -0.116049935135E+04   -0.45303E-03   -0.10235E-03  1682   0.387E-02    0.524E-02
RMM:  21    -0.116049957436E+04   -0.22302E-03   -0.12107E-04  1647   0.156E-02    0.391E-02
RMM:  22    -0.116049962978E+04   -0.55419E-04   -0.11565E-04  1598   0.141E-02    0.429E-02
RMM:  23    -0.116049963186E+04   -0.20788E-05   -0.40999E-05  1572   0.859E-03    0.203E-02
RMM:  24    -0.116049962883E+04    0.30347E-05   -0.20768E-05  1578   0.617E-03    0.130E-02
RMM:  25    -0.116049964149E+04   -0.12665E-04   -0.49329E-06  1213   0.311E-03    0.960E-03
RMM:  26    -0.116049964148E+04    0.91750E-08   -0.28391E-06  1167   0.222E-03
   1 F= -.11604996E+04 E0= -.11604996E+04  d E =-.116050E+04  mag=     4.0000
       N       E                     dE             d eps       ncg     rms          rms(c)
DAV:   1    -0.116012480271E+04    0.37484E+00   -0.32922E+01  1856   0.137E+01    0.315E+00
RMM:   2    -0.116049734820E+04   -0.37255E+00   -0.37237E+00  1765   0.214E+00    0.190E+00
RMM:   3    -0.116058453854E+04   -0.87190E-01   -0.73334E-01  1825   0.817E-01    0.138E+00
RMM:   4    -0.116059659727E+04   -0.12059E-01   -0.89317E-02  1748   0.353E-01    0.890E-01
RMM:   5    -0.116059534576E+04    0.12515E-02   -0.27229E-02  1680   0.200E-01    0.634E-01
RMM:   6    -0.116059528720E+04    0.58558E-04   -0.18294E-02  1569   0.176E-01    0.291E-01
RMM:   7    -0.116059672829E+04   -0.14411E-02   -0.58106E-03  1671   0.100E-01    0.152E-01
RMM:   8    -0.116059645824E+04    0.27005E-03   -0.91935E-04  1608   0.456E-02    0.101E-01
RMM:   9    -0.116059641431E+04    0.43931E-04   -0.94480E-04  1606   0.385E-02    0.415E-02
RMM:  10    -0.116059642888E+04   -0.14576E-04   -0.18934E-04  1782   0.180E-02    0.333E-02
RMM:  11    -0.116059642527E+04    0.36118E-05   -0.70819E-05  1569   0.113E-02    0.234E-02
RMM:  12    -0.116059643081E+04   -0.55400E-05   -0.20819E-05  1646   0.664E-03    0.162E-02
RMM:  13    -0.116059643670E+04   -0.58914E-05   -0.14397E-05  1558   0.505E-03    0.128E-02
RMM:  14    -0.116059644212E+04   -0.54173E-05   -0.10846E-05  1533   0.441E-03    0.956E-03
RMM:  15    -0.116059644639E+04   -0.42731E-05   -0.48449E-06  1227   0.282E-03    0.598E-03
RMM:  16    -0.116059644784E+04   -0.14504E-05   -0.23939E-06  1124   0.193E-03    0.469E-03
RMM:  17    -0.116059644764E+04    0.20833E-06   -0.21160E-06  1144   0.164E-03
   2 F= -.11605964E+04 E0= -.11605964E+04  d E =-.968062E-01  mag=     4.0000
       N       E                     dE             d eps       ncg     rms          rms(c)
DAV:   1    -0.116058603228E+04    0.10416E-01   -0.12216E+00  1888   0.262E+00    0.569E-01
RMM:   2    -0.116060024882E+04   -0.14217E-01   -0.14503E-01  1759   0.397E-01    0.374E-01
RMM:   3    -0.116060199416E+04   -0.17453E-02   -0.14512E-02  1791   0.144E-01    0.246E-01
RMM:   4    -0.116060221033E+04   -0.21617E-03   -0.33902E-03  1730   0.684E-02    0.157E-01
RMM:   5    -0.116060222403E+04   -0.13695E-04   -0.10991E-03  1708   0.378E-02    0.109E-01
RMM:   6    -0.116060232275E+04   -0.98725E-04   -0.58882E-04  1576   0.317E-02    0.505E-02
RMM:   7    -0.116060236342E+04   -0.40670E-04   -0.11701E-04  1730   0.157E-02    0.274E-02
RMM:   8    -0.116060236206E+04    0.13570E-05   -0.23755E-05  1713   0.655E-03    0.230E-02
RMM:   9    -0.116060236094E+04    0.11201E-05   -0.42460E-05  1580   0.800E-03    0.987E-03
RMM:  10    -0.116060236282E+04   -0.18787E-05   -0.79086E-06  1506   0.387E-03    0.605E-03
RMM:  11    -0.116060236290E+04   -0.80123E-07   -0.17715E-06  1092   0.178E-03
   3 F= -.11606024E+04 E0= -.11606024E+04  d E =-.102721E+00  mag=     4.0000
       N       E                     dE             d eps       ncg     rms          rms(c)
DAV:   1    -0.116040701992E+04    0.19534E+00   -0.12741E+01  1952   0.971E+00    0.219E+00
RMM:   2    -0.116063170189E+04   -0.22468E+00   -0.22333E+00  1784   0.138E+00    0.130E+00
RMM:   3    -0.116066241714E+04   -0.30715E-01   -0.20587E-01  1787   0.490E-01    0.808E-01
RMM:   4    -0.116067056737E+04   -0.81502E-02   -0.43120E-02  1742   0.222E-01    0.447E-01
RMM:   5    -0.116067113293E+04   -0.56556E-03   -0.75887E-03  1779   0.101E-01    0.335E-01
RMM:   6    -0.116067147152E+04   -0.33859E-03   -0.42652E-03  1577   0.893E-02    0.132E-01
RMM:   7    -0.116067188973E+04   -0.41821E-03   -0.92608E-04  1643   0.448E-02    0.816E-02
RMM:   8    -0.116067199457E+04   -0.10484E-03   -0.21103E-04  1723   0.217E-02    0.443E-02
RMM:   9    -0.116067201113E+04   -0.16558E-04   -0.73801E-05  1603   0.117E-02    0.251E-02
RMM:  10    -0.116067201064E+04    0.49040E-06   -0.55146E-05  1591   0.969E-03    0.143E-02
RMM:  11    -0.116067201109E+04   -0.45128E-06   -0.10674E-05  1603   0.498E-03    0.784E-03
RMM:  12    -0.116067201045E+04    0.64446E-06   -0.53155E-06  1359   0.309E-03
   4 F= -.11606720E+04 E0= -.11606720E+04  d E =-.696475E-01  mag=     4.0000
       N       E                     dE             d eps       ncg     rms          rms(c)
DAV:   1    -0.116065100168E+04    0.21009E-01   -0.12473E+00  1888   0.302E+00    0.668E-01
RMM:   2    -0.116067270831E+04   -0.21707E-01   -0.21671E-01  1780   0.427E-01    0.408E-01
RMM:   3    -0.116067550340E+04   -0.27951E-02   -0.19689E-02  1792   0.151E-01    0.238E-01
RMM:   4    -0.116067604508E+04   -0.54168E-03   -0.36914E-03  1734   0.664E-02    0.137E-01
RMM:   5    -0.116067614512E+04   -0.10004E-03   -0.79643E-04  1746   0.321E-02    0.974E-02
RMM:   6    -0.116067628041E+04   -0.13529E-03   -0.40035E-04  1575   0.276E-02    0.393E-02
RMM:   7    -0.116067634387E+04   -0.63462E-04   -0.79997E-05  1647   0.138E-02    0.221E-02
RMM:   8    -0.116067635730E+04   -0.13426E-04   -0.20432E-05  1652   0.656E-03    0.134E-02
RMM:   9    -0.116067635945E+04   -0.21470E-05   -0.84678E-06  1502   0.402E-03    0.706E-03
RMM:  10    -0.116067636129E+04   -0.18424E-05   -0.43466E-06  1277   0.280E-03    0.473E-03
RMM:  11    -0.116067636114E+04    0.15024E-06   -0.10062E-06  1064   0.139E-03
   5 F= -.11606764E+04 E0= -.11606764E+04  d E =-.739982E-01  mag=     4.0000
       N       E                     dE             d eps       ncg     rms          rms(c)
DAV:   1    -0.116059558797E+04    0.80773E-01   -0.50132E+00  1888   0.628E+00    0.135E+00
RMM:   2    -0.116068976721E+04   -0.94179E-01   -0.93518E-01  1764   0.897E-01    0.823E-01
RMM:   3    -0.116070233839E+04   -0.12571E-01   -0.85580E-02  1785   0.323E-01    0.499E-01
RMM:   4    -0.116070488714E+04   -0.25487E-02   -0.17660E-02  1762   0.143E-01    0.283E-01
RMM:   5    -0.116070511482E+04   -0.22769E-03   -0.30587E-03  1817   0.645E-02    0.214E-01
RMM:   6    -0.116070553864E+04   -0.42382E-03   -0.17205E-03  1566   0.573E-02    0.833E-02
RMM:   7    -0.116070567795E+04   -0.13930E-03   -0.31356E-04  1693   0.271E-02    0.517E-02
RMM:   8    -0.116070569237E+04   -0.14426E-04   -0.85878E-05  1677   0.134E-02    0.315E-02
RMM:   9    -0.116070570800E+04   -0.15630E-04   -0.58586E-05  1576   0.105E-02    0.170E-02
RMM:  10    -0.116070571057E+04   -0.25639E-05   -0.18730E-05  1817   0.556E-03    0.130E-02
RMM:  11    -0.116070570986E+04    0.70701E-06   -0.29011E-06  1181   0.241E-03
   6 F= -.11607057E+04 E0= -.11607057E+04  d E =-.293487E-01  mag=     4.0000
       N       E                     dE             d eps       ncg     rms          rms(c)
DAV:   1    -0.116069808572E+04    0.76248E-02   -0.42205E-01  2048   0.183E+00    0.384E-01
RMM:   2    -0.116070598028E+04   -0.78946E-02   -0.78986E-02  1763   0.261E-01    0.239E-01
RMM:   3    -0.116070703632E+04   -0.10560E-02   -0.71878E-03  1782   0.936E-02    0.140E-01
RMM:   4    -0.116070725268E+04   -0.21636E-03   -0.14236E-03  1763   0.414E-02    0.816E-02
RMM:   5    -0.116070730387E+04   -0.51186E-04   -0.29062E-04  1781   0.194E-02    0.599E-02
RMM:   6    -0.116070737052E+04   -0.66647E-04   -0.15477E-04  1570   0.175E-02    0.238E-02
RMM:   7    -0.116070738707E+04   -0.16551E-04   -0.23833E-05  1668   0.774E-03    0.147E-02
RMM:   8    -0.116070739104E+04   -0.39703E-05   -0.80930E-06  1520   0.402E-03    0.952E-03
RMM:   9    -0.116070739493E+04   -0.38896E-05   -0.47571E-06  1369   0.307E-03    0.576E-03
RMM:  10    -0.116070739494E+04   -0.10114E-07   -0.13001E-06  1074   0.159E-03
   7 F= -.11607074E+04 E0= -.11607074E+04  d E =-.310338E-01  mag=     4.0000
       N       E                     dE             d eps       ncg     rms          rms(c)
DAV:   1    -0.116065384185E+04    0.53553E-01   -0.34982E+00  1920   0.519E+00    0.105E+00
RMM:   2    -0.116071288753E+04   -0.59046E-01   -0.58426E-01  1761   0.713E-01    0.640E-01
RMM:   3    -0.116072046293E+04   -0.75754E-02   -0.55150E-02  1794   0.258E-01    0.390E-01
RMM:   4    -0.116072253326E+04   -0.20703E-02   -0.11449E-02  1793   0.112E-01    0.222E-01
RMM:   5    -0.116072291848E+04   -0.38521E-03   -0.17526E-03  1859   0.488E-02    0.164E-01
RMM:   6    -0.116072328553E+04   -0.36705E-03   -0.69372E-04  1595   0.373E-02    0.650E-02
RMM:   7    -0.116072336482E+04   -0.79292E-04   -0.15950E-04  1704   0.200E-02    0.349E-02
RMM:   8    -0.116072337042E+04   -0.56010E-05   -0.35226E-05  1681   0.877E-03    0.233E-02
RMM:   9    -0.116072338137E+04   -0.10949E-04   -0.26078E-05  1578   0.670E-03    0.141E-02
RMM:  10    -0.116072338367E+04   -0.23003E-05   -0.15233E-05  1595   0.519E-03    0.783E-03
RMM:  11    -0.116072338609E+04   -0.24227E-05   -0.60004E-06  1495   0.369E-03    0.446E-03
RMM:  12    -0.116072338598E+04    0.11602E-06   -0.12877E-06  1053   0.159E-03
   8 F= -.11607234E+04 E0= -.11607234E+04  d E =-.159910E-01  mag=     4.0000
       N       E                     dE             d eps       ncg     rms          rms(c)
DAV:   1    -0.116072243405E+04    0.95204E-03   -0.59209E-02  2016   0.676E-01    0.134E-01
RMM:   2    -0.116072340154E+04   -0.96748E-03   -0.98256E-03  1762   0.930E-02    0.829E-02
RMM:   3    -0.116072352806E+04   -0.12652E-03   -0.88103E-04  1779   0.337E-02    0.485E-02
RMM:   4    -0.116072356362E+04   -0.35563E-04   -0.22237E-04  1756   0.153E-02    0.288E-02
RMM:   5    -0.116072357426E+04   -0.10635E-04   -0.41896E-05  1712   0.707E-03    0.206E-02
RMM:   6    -0.116072360132E+04   -0.27066E-04   -0.16645E-05  1558   0.618E-03    0.780E-03
RMM:   7    -0.116072360648E+04   -0.51537E-05   -0.30478E-06  1153   0.289E-03    0.457E-03
RMM:   8    -0.116072360654E+04   -0.60183E-07   -0.72475E-07  1041   0.123E-03
   9 F= -.11607236E+04 E0= -.11607236E+04  d E =-.162116E-01  mag=     4.0000
       N       E                     dE             d eps       ncg     rms          rms(c)
DAV:   1    -0.116071107314E+04    0.12533E-01   -0.17856E+00  1792   0.339E+00    0.612E-01
RMM:   2    -0.116073023328E+04   -0.19160E-01   -0.19375E-01  1735   0.453E-01    0.388E-01
RMM:   3    -0.116073271295E+04   -0.24797E-02   -0.19865E-02  1765   0.169E-01    0.258E-01
RMM:   4    -0.116073328181E+04   -0.56886E-03   -0.43662E-03  1771   0.743E-02    0.159E-01
RMM:   5    -0.116073334123E+04   -0.59421E-04   -0.73949E-04  1736   0.355E-02    0.110E-01
RMM:   6    -0.116073344584E+04   -0.10461E-03   -0.44636E-04  1573   0.299E-02    0.462E-02
RMM:   7    -0.116073350178E+04   -0.55936E-04   -0.11638E-04  1695   0.166E-02    0.249E-02
RMM:   8    -0.116073349852E+04    0.32582E-05   -0.22640E-05  1704   0.705E-03    0.188E-02
RMM:   9    -0.116073349874E+04   -0.21437E-06   -0.15050E-05  1552   0.509E-03    0.108E-02
RMM:  10    -0.116073350070E+04   -0.19660E-05   -0.73420E-06  1549   0.379E-03    0.600E-03
RMM:  11    -0.116073350142E+04   -0.71808E-06   -0.34606E-06  1212   0.268E-03
  10 F= -.11607335E+04 E0= -.11607335E+04  d E =-.989488E-02  mag=     4.0000
       N       E                     dE             d eps       ncg     rms          rms(c)
DAV:   1    -0.116073115340E+04    0.23473E-02   -0.25972E-01  1888   0.129E+00    0.232E-01
RMM:   2    -0.116073389822E+04   -0.27448E-02   -0.28013E-02  1736   0.172E-01    0.148E-01
RMM:   3    -0.116073426468E+04   -0.36646E-03   -0.28547E-03  1772   0.642E-02    0.971E-02
RMM:   4    -0.116073434993E+04   -0.85250E-04   -0.59010E-04  1753   0.283E-02    0.600E-02
RMM:   5    -0.116073437227E+04   -0.22339E-04   -0.14203E-04  1746   0.145E-02    0.408E-02
RMM:   6    -0.116073439183E+04   -0.19562E-04   -0.65937E-05  1579   0.118E-02    0.175E-02
RMM:   7    -0.116073440587E+04   -0.14036E-04   -0.16786E-05  1677   0.636E-03    0.948E-03
RMM:   8    -0.116073440589E+04   -0.18881E-07   -0.33928E-06  1155   0.271E-03
  11 F= -.11607344E+04 E0= -.11607344E+04  d E =-.107994E-01  mag=     4.0000
       N       E                     dE             d eps       ncg     rms          rms(c)
DAV:   1    -0.116073497827E+04   -0.57240E-03   -0.11872E+00  1760   0.227E+00    0.344E-01
RMM:   2    -0.116073945953E+04   -0.44813E-02   -0.48999E-02  1699   0.298E-01    0.258E-01
RMM:   3    -0.116073992943E+04   -0.46990E-03   -0.65511E-03  1730   0.117E-01    0.204E-01
RMM:   4    -0.116073977764E+04    0.15179E-03   -0.18924E-03  1704   0.589E-02    0.131E-01
RMM:   5    -0.116073973226E+04    0.45385E-04   -0.62873E-04  1698   0.335E-02    0.850E-02
RMM:   6    -0.116073977384E+04   -0.41588E-04   -0.31195E-04  1614   0.250E-02    0.377E-02
RMM:   7    -0.116073979472E+04   -0.20876E-04   -0.77142E-05  1744   0.130E-02    0.249E-02
RMM:   8    -0.116073978682E+04    0.79042E-05   -0.54739E-05  1586   0.927E-03    0.164E-02
RMM:   9    -0.116073979307E+04   -0.62572E-05   -0.15400E-05  1710   0.537E-03    0.114E-02
RMM:  10    -0.116073979205E+04    0.10210E-05   -0.22884E-06  1105   0.231E-03    0.106E-02
RMM:  11    -0.116073979669E+04   -0.46338E-05   -0.79955E-06  1440   0.371E-03    0.763E-03
RMM:  12    -0.116073979872E+04   -0.20355E-05   -0.17227E-06  1108   0.177E-03    0.723E-03
RMM:  13    -0.116073980104E+04   -0.23187E-05   -0.42494E-06  1241   0.241E-03    0.549E-03
RMM:  14    -0.116073980166E+04   -0.62124E-06   -0.67246E-06  1287   0.302E-03
  12 F= -.11607398E+04 E0= -.11607398E+04  d E =-.539577E-02  mag=     4.0000
       N       E                     dE             d eps       ncg     rms          rms(c)
DAV:   1    -0.116073980552E+04   -0.44797E-05   -0.24140E-03  2048   0.103E-01    0.157E-02
RMM:   2    -0.116073981523E+04   -0.97095E-05   -0.10033E-04  1697   0.136E-02    0.121E-02
RMM:   3    -0.116073981605E+04   -0.81800E-06   -0.13418E-05  1538   0.537E-03    0.951E-03
RMM:   4    -0.116073981603E+04    0.14610E-07   -0.48135E-06  1323   0.296E-03
  13 F= -.11607398E+04 E0= -.11607398E+04  d E =-.541014E-02  mag=     4.0000
       N       E                     dE             d eps       ncg     rms          rms(c)
DAV:   1    -0.116074233926E+04   -0.25232E-02   -0.55219E-01  1536   0.124E+00    0.153E-01
RMM:   2    -0.116074287010E+04   -0.53083E-03   -0.70922E-03  1603   0.150E-01    0.137E-01
RMM:   3    -0.116074293269E+04   -0.62596E-04   -0.15929E-03  1648   0.626E-02    0.123E-01
RMM:   4    -0.116074284811E+04    0.84584E-04   -0.57248E-04  1656   0.347E-02    0.750E-02
RMM:   5    -0.116074288317E+04   -0.35060E-04   -0.35631E-04  1600   0.244E-02    0.416E-02
RMM:   6    -0.116074287778E+04    0.53920E-05   -0.64123E-05  1600   0.123E-02    0.266E-02
RMM:   7    -0.116074288597E+04   -0.81952E-05   -0.41610E-05  1585   0.804E-03    0.204E-02
RMM:   8    -0.116074288777E+04   -0.17959E-05   -0.14342E-05  1587   0.489E-03    0.167E-02
RMM:   9    -0.116074290060E+04   -0.12835E-04   -0.17031E-05  1580   0.534E-03    0.123E-02
RMM:  10    -0.116074290198E+04   -0.13799E-05   -0.29790E-06  1159   0.244E-03    0.119E-02
RMM:  11    -0.116074290541E+04   -0.34281E-05   -0.36402E-06  1196   0.227E-03    0.105E-02
RMM:  12    -0.116074290885E+04   -0.34393E-05   -0.23490E-05  1690   0.551E-03    0.891E-03
RMM:  13    -0.116074291738E+04   -0.85287E-05   -0.40729E-06  1204   0.258E-03    0.795E-03
RMM:  14    -0.116074291359E+04    0.37915E-05   -0.21534E-05  1522   0.503E-03    0.597E-03
RMM:  15    -0.116074292293E+04   -0.93381E-05   -0.23808E-06  1128   0.206E-03    0.344E-03
RMM:  16    -0.116074292451E+04   -0.15826E-05   -0.16531E-06  1051   0.168E-03    0.181E-03
RMM:  17    -0.116074292501E+04   -0.49858E-06   -0.61351E-07  1013   0.101E-03
  14 F= -.11607429E+04 E0= -.11607429E+04  d E =-.310897E-02  mag=     4.0000
       N       E                     dE             d eps       ncg     rms          rms(c)
DAV:   1    -0.116074305305E+04   -0.12854E-03   -0.47885E-02  1536   0.366E-01    0.444E-02
RMM:   2    -0.116074309696E+04   -0.43914E-04   -0.61438E-04  1603   0.440E-02    0.398E-02
RMM:   3    -0.116074310232E+04   -0.53547E-05   -0.13834E-04  1646   0.184E-02    0.358E-02
RMM:   4    -0.116074309634E+04    0.59793E-05   -0.47334E-05  1648   0.100E-02    0.221E-02
RMM:   5    -0.116074309976E+04   -0.34274E-05   -0.30876E-05  1554   0.722E-03    0.119E-02
RMM:   6    -0.116074309964E+04    0.11956E-06   -0.55419E-06  1489   0.368E-03
  15 F= -.11607431E+04 E0= -.11607431E+04  d E =-.328361E-02  mag=     4.0000
       N       E                     dE             d eps       ncg     rms          rms(c)
DAV:   1    -0.116074465213E+04   -0.15524E-02   -0.50826E-01  1632   0.128E+00    0.152E-01
RMM:   2    -0.116074534556E+04   -0.69343E-03   -0.87128E-03  1647   0.157E-01    0.135E-01
RMM:   3    -0.116074540661E+04   -0.61051E-04   -0.17487E-03  1699   0.656E-02    0.115E-01
RMM:   4    -0.116074532149E+04    0.85112E-04   -0.66935E-04  1651   0.378E-02    0.637E-02
RMM:   5    -0.116074534091E+04   -0.19416E-04   -0.22499E-04  1720   0.207E-02    0.416E-02
RMM:   6    -0.116074535904E+04   -0.18131E-04   -0.55841E-05  1677   0.109E-02    0.268E-02
RMM:   7    -0.116074536617E+04   -0.71265E-05   -0.20998E-05  1669   0.625E-03    0.217E-02
RMM:   8    -0.116074537728E+04   -0.11114E-04   -0.45458E-05  1590   0.802E-03    0.152E-02
RMM:   9    -0.116074538188E+04   -0.45972E-05   -0.65802E-06  1459   0.368E-03    0.141E-02
RMM:  10    -0.116074538347E+04   -0.15959E-05   -0.37924E-06  1258   0.237E-03    0.128E-02
RMM:  11    -0.116074538996E+04   -0.64843E-05   -0.51671E-05  1863   0.836E-03    0.109E-02
RMM:  12    -0.116074540385E+04   -0.13892E-04   -0.28803E-06  1112   0.271E-03    0.918E-03
RMM:  13    -0.116074540095E+04    0.29050E-05   -0.24358E-05  1592   0.553E-03    0.623E-03
RMM:  14    -0.116074540690E+04   -0.59510E-05   -0.79944E-06  1346   0.313E-03    0.450E-03
RMM:  15    -0.116074541192E+04   -0.50229E-05   -0.35594E-06  1229   0.228E-03    0.266E-03
RMM:  16    -0.116074541356E+04   -0.16388E-05   -0.12023E-06  1047   0.145E-03    0.165E-03
RMM:  17    -0.116074541455E+04   -0.99331E-06   -0.34675E-07   989   0.836E-04
  16 F= -.11607454E+04 E0= -.11607454E+04  d E =-.231491E-02  mag=     4.0000
       N       E                     dE             d eps       ncg     rms          rms(c)
DAV:   1    -0.116074551214E+04   -0.98580E-04   -0.70633E-02  1600   0.477E-01    0.562E-02
RMM:   2    -0.116074560351E+04   -0.91371E-04   -0.12103E-03  1649   0.586E-02    0.499E-02
RMM:   3    -0.116074561207E+04   -0.85572E-05   -0.24280E-04  1701   0.245E-02    0.426E-02
RMM:   4    -0.116074559984E+04    0.12226E-04   -0.92971E-05  1645   0.141E-02    0.233E-02
RMM:   5    -0.116074560292E+04   -0.30813E-05   -0.31312E-05  1662   0.776E-03    0.149E-02
RMM:   6    -0.116074560543E+04   -0.25094E-05   -0.78867E-06  1555   0.411E-03    0.923E-03
RMM:   7    -0.116074560620E+04   -0.76681E-06   -0.26932E-06  1116   0.236E-03
  17 F= -.11607456E+04 E0= -.11607456E+04  d E =-.250656E-02  mag=     4.0000
       N       E                     dE             d eps       ncg     rms          rms(c)
DAV:   1    -0.116074689381E+04   -0.12884E-02   -0.32309E-01  1600   0.104E+00    0.122E-01
RMM:   2    -0.116074739748E+04   -0.50368E-03   -0.61653E-03  1657   0.128E-01    0.107E-01
RMM:   3    -0.116074745174E+04   -0.54259E-04   -0.11803E-03  1698   0.535E-02    0.907E-02
RMM:   4    -0.116074740974E+04    0.42000E-04   -0.40623E-04  1656   0.298E-02    0.526E-02
RMM:   5    -0.116074742249E+04   -0.12751E-04   -0.13052E-04  1708   0.162E-02    0.335E-02
RMM:   6    -0.116074743801E+04   -0.15519E-04   -0.44221E-05  1615   0.965E-03    0.208E-02
RMM:   7    -0.116074744344E+04   -0.54238E-05   -0.13881E-05  1612   0.506E-03    0.169E-02
RMM:   8    -0.116074745212E+04   -0.86822E-05   -0.24339E-05  1583   0.590E-03    0.126E-02
RMM:   9    -0.116074745653E+04   -0.44095E-05   -0.46229E-06  1225   0.290E-03    0.115E-02
RMM:  10    -0.116074746084E+04   -0.43164E-05   -0.53437E-06  1247   0.260E-03    0.100E-02
RMM:  11    -0.116074746468E+04   -0.38355E-05   -0.19050E-05  1481   0.492E-03    0.871E-03
RMM:  12    -0.116074747133E+04   -0.66477E-05   -0.67392E-06  1310   0.296E-03    0.689E-03
RMM:  13    -0.116074746964E+04    0.16851E-05   -0.22622E-05  1555   0.528E-03    0.447E-03
RMM:  14    -0.116074747780E+04   -0.81585E-05   -0.51300E-06  1274   0.269E-03    0.259E-03
RMM:  15    -0.116074748045E+04   -0.26501E-05   -0.19850E-06  1095   0.175E-03    0.165E-03
RMM:  16    -0.116074748231E+04   -0.18626E-05   -0.37163E-07   990   0.931E-04    0.959E-04
RMM:  17    -0.116074748248E+04   -0.16878E-06   -0.24477E-07   927   0.671E-04
  18 F= -.11607475E+04 E0= -.11607475E+04  d E =-.187628E-02  mag=     4.0000
       N       E                     dE             d eps       ncg     rms          rms(c)
DAV:   1    -0.116074764385E+04   -0.16153E-03   -0.20808E-01  1600   0.837E-01    0.971E-02
RMM:   2    -0.116074796546E+04   -0.32162E-03   -0.39765E-03  1657   0.103E-01    0.849E-02
RMM:   3    -0.116074800021E+04   -0.34748E-04   -0.75910E-04  1703   0.428E-02    0.720E-02
RMM:   4    -0.116074796990E+04    0.30316E-04   -0.25595E-04  1650   0.237E-02    0.411E-02
RMM:   5    -0.116074797646E+04   -0.65670E-05   -0.85510E-05  1704   0.130E-02    0.254E-02
RMM:   6    -0.116074798401E+04   -0.75489E-05   -0.25906E-05  1621   0.744E-03    0.150E-02
RMM:   7    -0.116074798604E+04   -0.20242E-05   -0.75127E-06  1529   0.383E-03    0.118E-02
RMM:   8    -0.116074798938E+04   -0.33430E-05   -0.12400E-05  1529   0.421E-03    0.846E-03
RMM:   9    -0.116074799040E+04   -0.10242E-05   -0.18036E-06  1105   0.194E-03    0.783E-03
RMM:  10    -0.116074799255E+04   -0.21490E-05   -0.29300E-06  1161   0.209E-03    0.685E-03
RMM:  11    -0.116074799472E+04   -0.21659E-05   -0.69250E-06  1300   0.304E-03    0.627E-03
RMM:  12    -0.116074799777E+04   -0.30482E-05   -0.14203E-06  1063   0.155E-03    0.528E-03
RMM:  13    -0.116074799496E+04    0.28055E-05   -0.14473E-05  1419   0.432E-03    0.412E-03
RMM:  14    -0.116074800068E+04   -0.57174E-05   -0.24529E-06  1137   0.191E-03    0.290E-03
RMM:  15    -0.116074800094E+04   -0.25620E-06   -0.32269E-06  1160   0.205E-03
  19 F= -.11607480E+04 E0= -.11607480E+04  d E =-.239474E-02  mag=     4.0000
       N       E                     dE             d eps       ncg     rms          rms(c)
DAV:   1    -0.116074907828E+04   -0.10776E-02   -0.20114E-01  1536   0.784E-01    0.918E-02
RMM:   2    -0.116074932389E+04   -0.24562E-03   -0.31198E-03  1631   0.975E-02    0.835E-02
RMM:   3    -0.116074934719E+04   -0.23299E-04   -0.68113E-04  1698   0.412E-02    0.726E-02
RMM:   4    -0.116074931478E+04    0.32417E-04   -0.32289E-04  1641   0.254E-02    0.364E-02
RMM:   5    -0.116074932576E+04   -0.10982E-04   -0.83090E-05  1786   0.126E-02    0.261E-02
RMM:   6    -0.116074932747E+04   -0.17163E-05   -0.16592E-05  1593   0.589E-03    0.161E-02
RMM:   7    -0.116074933041E+04   -0.29322E-05   -0.10023E-05  1554   0.400E-03    0.124E-02
RMM:   8    -0.116074933413E+04   -0.37189E-05   -0.93366E-06  1554   0.375E-03    0.949E-03
RMM:   9    -0.116074933836E+04   -0.42360E-05   -0.55991E-06  1319   0.297E-03    0.853E-03
RMM:  10    -0.116074934025E+04   -0.18930E-05   -0.26146E-06  1137   0.191E-03    0.753E-03
RMM:  11    -0.116074934158E+04   -0.13267E-05   -0.14177E-05  1414   0.431E-03    0.634E-03
RMM:  12    -0.116074934764E+04   -0.60605E-05   -0.18850E-06  1106   0.184E-03    0.546E-03
RMM:  13    -0.116074934695E+04    0.69375E-06   -0.74230E-06  1322   0.309E-03
  20 F= -.11607493E+04 E0= -.11607493E+04  d E =-.134601E-02  mag=     4.0000
