       N       E                     dE             d eps       ncg     rms          rms(c)
DAV:   1     0.491190638074E+04    0.49119E+04   -0.16973E+05  1836   0.901E+02
DAV:   2    -0.455826511140E+02   -0.49575E+04   -0.44932E+04  2520   0.208E+02
DAV:   3    -0.117313328048E+04   -0.11276E+04   -0.11204E+04  2124   0.112E+02
DAV:   4    -0.122895589289E+04   -0.55823E+02   -0.55555E+02  2124   0.332E+01
DAV:   5    -0.123122883237E+04   -0.22729E+01   -0.22681E+01  2412   0.605E+00    0.608E+01
RMM:   6    -0.121675392438E+04    0.14475E+02   -0.75310E+00  1707   0.333E+00    0.496E+01
RMM:   7    -0.118097445459E+04    0.35779E+02   -0.46973E+01  1938   0.922E+00    0.303E+01
RMM:   8    -0.116515226745E+04    0.15822E+02   -0.19945E+01  1750   0.700E+00    0.226E+01
RMM:   9    -0.116412876417E+04    0.10235E+01   -0.33421E+01  1942   0.871E+00    0.944E+00
RMM:  10    -0.116497222473E+04   -0.84346E+00   -0.26952E+00  1943   0.374E+00    0.760E+00
RMM:  11    -0.116478793116E+04    0.18429E+00   -0.31587E+00  1854   0.225E+00    0.250E+00
RMM:  12    -0.116471733569E+04    0.70595E-01   -0.28872E-01  1814   0.167E+00    0.123E+00
RMM:  13    -0.116468721018E+04    0.30126E-01   -0.13715E-01  1901   0.462E-01    0.574E-01
RMM:  14    -0.116469734335E+04   -0.10133E-01   -0.30283E-02  1790   0.336E-01    0.363E-01
RMM:  15    -0.116470689699E+04   -0.95536E-02   -0.28369E-02  1856   0.184E-01    0.252E-01
RMM:  16    -0.116471648602E+04   -0.95890E-02   -0.30774E-02  1463   0.106E-01    0.320E-01
RMM:  17    -0.116472085816E+04   -0.43721E-02   -0.13187E-02  1205   0.613E-02    0.364E-01
RMM:  18    -0.116471413928E+04    0.67189E-02   -0.32086E-03  1187   0.414E-02    0.305E-01
RMM:  19    -0.116470172734E+04    0.12412E-01   -0.21309E-02  1278   0.802E-02    0.233E-01
RMM:  20    -0.116470118752E+04    0.53982E-03   -0.28144E-03  1141   0.659E-02    0.149E-01
RMM:  21    -0.116469437861E+04    0.68089E-02   -0.10854E-02  1183   0.540E-02    0.106E-01
RMM:  22    -0.116468475827E+04    0.96203E-02   -0.11941E-02  1216   0.648E-02    0.789E-02
RMM:  23    -0.116468183581E+04    0.29225E-02   -0.39424E-03  1146   0.506E-02    0.622E-02
RMM:  24    -0.116467415119E+04    0.76846E-02   -0.11908E-02  1182   0.503E-02    0.546E-02
RMM:  25    -0.116467242260E+04    0.17286E-02   -0.24527E-03  1125   0.380E-02    0.446E-02
RMM:  26    -0.116466124062E+04    0.11182E-01   -0.12485E-02  1201   0.575E-02    0.330E-02
RMM:  27    -0.116466128741E+04   -0.46794E-04   -0.12432E-03  1114   0.393E-02    0.287E-02
RMM:  28    -0.116466036899E+04    0.91842E-03   -0.12338E-03  1116   0.225E-02    0.237E-02
RMM:  29    -0.116465929118E+04    0.10778E-02   -0.11204E-03  1102   0.267E-02    0.237E-02
RMM:  30    -0.116465454480E+04    0.47464E-02   -0.21679E-03  1123   0.300E-02    0.191E-02
RMM:  31    -0.116465175476E+04    0.27900E-02   -0.44674E-04  1063   0.263E-02    0.225E-02
RMM:  32    -0.116465040621E+04    0.13486E-02   -0.17536E-04   944   0.118E-02    0.221E-02
RMM:  33    -0.116464984966E+04    0.55655E-03   -0.42720E-05   869   0.123E-02    0.229E-02
RMM:  34    -0.116464733402E+04    0.25156E-02   -0.18453E-04   827   0.994E-03    0.222E-02
RMM:  35    -0.116464565913E+04    0.16749E-02   -0.89684E-05   810   0.970E-03    0.234E-02
RMM:  36    -0.116464203221E+04    0.36269E-02   -0.25406E-04   897   0.118E-02    0.230E-02
RMM:  37    -0.116464326639E+04   -0.12342E-02   -0.26714E-05   787   0.983E-03    0.237E-02
RMM:  38    -0.116464137332E+04    0.18931E-02   -0.56742E-05   696   0.588E-03    0.232E-02
RMM:  39    -0.116464111036E+04    0.26297E-03   -0.12554E-05   653   0.546E-03    0.242E-02
RMM:  40    -0.116464109655E+04    0.13801E-04   -0.46112E-06   580   0.372E-03
   1 F= -.11716539E+04 E0= -.11716539E+04  d E =-.117165E+04  mag=     1.0002
       N       E                     dE             d eps       ncg     rms          rms(c)
DAV:   1    -0.116459954300E+04    0.41567E-01   -0.62899E-01  1764   0.149E+00    0.249E-01
RMM:   2    -0.116463312818E+04   -0.33585E-01   -0.35802E-02  1935   0.231E-01    0.212E-01
RMM:   3    -0.116465539407E+04   -0.22266E-01   -0.66327E-03  1566   0.132E-01    0.177E-01
RMM:   4    -0.116467060861E+04   -0.15215E-01   -0.26576E-02  1544   0.118E-01    0.130E-01
RMM:   5    -0.116466811466E+04    0.24940E-02   -0.14304E-02  1561   0.107E-01    0.108E-01
RMM:   6    -0.116467040849E+04   -0.22938E-02   -0.62153E-03  1467   0.715E-02    0.101E-01
RMM:   7    -0.116468413076E+04   -0.13722E-01   -0.29703E-03  1194   0.626E-02    0.101E-01
RMM:   8    -0.116469105400E+04   -0.69232E-02   -0.38586E-03  1150   0.380E-02    0.714E-02
RMM:   9    -0.116470541347E+04   -0.14359E-01   -0.45222E-02  1225   0.641E-02    0.818E-02
RMM:  10    -0.116470498672E+04    0.42675E-03   -0.58765E-03  1120   0.643E-02    0.931E-02
RMM:  11    -0.116469773565E+04    0.72511E-02   -0.15001E-02  1114   0.506E-02    0.624E-02
RMM:  12    -0.116469638708E+04    0.13486E-02   -0.13645E-03  1086   0.234E-02    0.643E-02
RMM:  13    -0.116468994490E+04    0.64422E-02   -0.65493E-03  1130   0.368E-02    0.656E-02
RMM:  14    -0.116468832214E+04    0.16228E-02   -0.20966E-03  1107   0.306E-02    0.480E-02
RMM:  15    -0.116468495995E+04    0.33622E-02   -0.21265E-03  1091   0.238E-02    0.543E-02
RMM:  16    -0.116468120150E+04    0.37584E-02   -0.41940E-03  1105   0.365E-02    0.412E-02
RMM:  17    -0.116467966562E+04    0.15359E-02   -0.81945E-04   897   0.230E-02    0.369E-02
RMM:  18    -0.116467342382E+04    0.62418E-02   -0.47612E-03  1018   0.361E-02    0.339E-02
RMM:  19    -0.116467278123E+04    0.64260E-03   -0.36234E-04   904   0.232E-02    0.352E-02
RMM:  20    -0.116467032656E+04    0.24547E-02   -0.91418E-04   904   0.177E-02    0.402E-02
RMM:  21    -0.116467004390E+04    0.28266E-03   -0.11720E-04   804   0.147E-02    0.347E-02
RMM:  22    -0.116466755670E+04    0.24872E-02   -0.15234E-03   920   0.210E-02    0.417E-02
RMM:  23    -0.116466420092E+04    0.33558E-02   -0.15211E-03  1014   0.253E-02    0.438E-02
RMM:  24    -0.116466356383E+04    0.63709E-03   -0.26665E-04   869   0.165E-02    0.363E-02
RMM:  25    -0.116466217762E+04    0.13862E-02   -0.39691E-04   835   0.130E-02    0.440E-02
RMM:  26    -0.116466019226E+04    0.19854E-02   -0.49899E-04   910   0.171E-02    0.435E-02
RMM:  27    -0.116465896498E+04    0.12273E-02   -0.28943E-04   848   0.142E-02    0.415E-02
RMM:  28    -0.116465856208E+04    0.40289E-03   -0.47585E-05   735   0.866E-03    0.422E-02
RMM:  29    -0.116465855026E+04    0.11825E-04   -0.87886E-06   629   0.631E-03
   2 F= -.11716713E+04 E0= -.11716713E+04  d E =-.173979E-01  mag=     1.0000
       N       E                     dE             d eps       ncg     rms          rms(c)
DAV:   1    -0.116465845282E+04    0.10927E-03   -0.53157E-05  1404   0.142E-02    0.423E-02
RMM:   2    -0.116466739412E+04   -0.89413E-02   -0.93489E-04   995   0.182E-02    0.316E-02
RMM:   3    -0.116468076816E+04   -0.13374E-01   -0.53574E-03  1101   0.381E-02    0.310E-02
RMM:   4    -0.116468027974E+04    0.48842E-03   -0.77145E-04   983   0.342E-02    0.339E-02
RMM:   5    -0.116468658735E+04   -0.63076E-02   -0.50794E-03   982   0.306E-02    0.262E-02
RMM:   6    -0.116468530929E+04    0.12781E-02   -0.65760E-04   857   0.278E-02    0.359E-02
RMM:   7    -0.116468093961E+04    0.43697E-02   -0.26734E-03   783   0.255E-02    0.425E-02
RMM:   8    -0.116468627842E+04   -0.53388E-02   -0.23961E-03   922   0.246E-02    0.579E-02
RMM:   9    -0.116467632516E+04    0.99533E-02   -0.74602E-03   975   0.461E-02    0.654E-02
RMM:  10    -0.116467577994E+04    0.54522E-03   -0.65023E-04   805   0.297E-02    0.415E-02
RMM:  11    -0.116467297095E+04    0.28090E-02   -0.10798E-03   840   0.180E-02    0.488E-02
RMM:  12    -0.116466991689E+04    0.30541E-02   -0.70861E-04   860   0.195E-02    0.409E-02
RMM:  13    -0.116467096824E+04   -0.10514E-02   -0.79396E-05   746   0.973E-03    0.385E-02
RMM:  14    -0.116467159059E+04   -0.62235E-03   -0.75002E-05   575   0.667E-03    0.372E-02
RMM:  15    -0.116467174510E+04   -0.15450E-03   -0.77189E-06   508   0.482E-03    0.383E-02
RMM:  16    -0.116466743890E+04    0.43062E-02   -0.57912E-04   841   0.139E-02    0.394E-02
RMM:  17    -0.116467606417E+04   -0.86253E-02   -0.38080E-03   974   0.325E-02    0.530E-02
RMM:  18    -0.116468083175E+04   -0.47676E-02   -0.23614E-03   994   0.302E-02    0.598E-02
RMM:  19    -0.116468226983E+04   -0.14381E-02   -0.47160E-04   912   0.198E-02    0.505E-02
RMM:  20    -0.116468727728E+04   -0.50074E-02   -0.44575E-03  1078   0.309E-02    0.421E-02
RMM:  21    -0.116469591454E+04   -0.86373E-02   -0.27529E-02  1191   0.571E-02    0.758E-02
RMM:  22    -0.116469999667E+04   -0.40821E-02   -0.14031E-02  1116   0.617E-02    0.901E-02
RMM:  23    -0.116470307434E+04   -0.30777E-02   -0.12365E-02  1088   0.392E-02    0.937E-02
RMM:  24    -0.116468612034E+04    0.16954E-01   -0.47990E-02  1118   0.947E-02    0.108E-01
RMM:  25    -0.116468753304E+04   -0.14127E-02   -0.26996E-03   978   0.559E-02    0.492E-02
RMM:  26    -0.116468609352E+04    0.14395E-02   -0.17585E-03   911   0.144E-02    0.419E-02
RMM:  27    -0.116468480706E+04    0.12865E-02   -0.25837E-04   849   0.138E-02    0.402E-02
RMM:  28    -0.116467901408E+04    0.57930E-02   -0.26351E-03  1053   0.270E-02    0.287E-02
RMM:  29    -0.116467749625E+04    0.15178E-02   -0.46920E-04   960   0.227E-02    0.361E-02
RMM:  30    -0.116467633635E+04    0.11599E-02   -0.28491E-04   835   0.109E-02    0.364E-02
RMM:  31    -0.116467445186E+04    0.18845E-02   -0.29115E-04   873   0.145E-02    0.393E-02
RMM:  32    -0.116467443825E+04    0.13612E-04   -0.40725E-05   776   0.991E-03
   3 F= -.11716872E+04 E0= -.11716872E+04  d E =-.332865E-01  mag=     1.0000
       N       E                     dE             d eps       ncg     rms          rms(c)
DAV:   1    -0.116465959790E+04    0.14854E-01   -0.12134E-01  1728   0.603E-01    0.900E-02
RMM:   2    -0.116467346039E+04   -0.13862E-01   -0.56629E-03  1699   0.950E-02    0.775E-02
RMM:   3    -0.116468497155E+04   -0.11511E-01   -0.51289E-03  1238   0.855E-02    0.675E-02
RMM:   4    -0.116469381585E+04   -0.88443E-02   -0.22271E-02  1253   0.848E-02    0.601E-02
RMM:   5    -0.116469473272E+04   -0.91687E-03   -0.53870E-03  1138   0.670E-02    0.596E-02
RMM:   6    -0.116469588309E+04   -0.11504E-02   -0.46047E-03  1123   0.354E-02    0.630E-02
RMM:   7    -0.116469690079E+04   -0.10177E-02   -0.88271E-04  1047   0.287E-02    0.699E-02
RMM:   8    -0.116469441923E+04    0.24816E-02   -0.13724E-03  1022   0.220E-02    0.616E-02
RMM:   9    -0.116468283890E+04    0.11580E-01   -0.16564E-02  1133   0.553E-02    0.723E-02
RMM:  10    -0.116467919589E+04    0.36430E-02   -0.19898E-03  1064   0.321E-02    0.548E-02
RMM:  11    -0.116465747833E+04    0.21718E-01   -0.17465E-02  1202   0.658E-02    0.778E-02
RMM:  12    -0.116464709691E+04    0.10381E-01   -0.55717E-03  1148   0.546E-02    0.621E-02
RMM:  13    -0.116464065739E+04    0.64395E-02   -0.19364E-03  1111   0.327E-02    0.703E-02
RMM:  14    -0.116464926477E+04   -0.86074E-02   -0.10803E-03  1038   0.293E-02    0.690E-02
RMM:  15    -0.116466371848E+04   -0.14454E-01   -0.43434E-03  1010   0.350E-02    0.703E-02
RMM:  16    -0.116466916240E+04   -0.54439E-02   -0.13489E-03   995   0.319E-02    0.458E-02
RMM:  17    -0.116469101279E+04   -0.21850E-01   -0.26563E-02  1222   0.595E-02    0.527E-02
RMM:  18    -0.116469276483E+04   -0.17520E-02   -0.31212E-03  1118   0.603E-02    0.327E-02
RMM:  19    -0.116470549513E+04   -0.12730E-01   -0.59497E-02  1238   0.595E-02    0.533E-02
RMM:  20    -0.116470912256E+04   -0.36274E-02   -0.14210E-02  1133   0.681E-02    0.718E-02
RMM:  21    -0.116470860673E+04    0.51583E-03   -0.27401E-03   941   0.156E-02    0.805E-02
RMM:  22    -0.116470936864E+04   -0.76191E-03   -0.61040E-04   881   0.160E-02    0.855E-02
RMM:  23    -0.116470964338E+04   -0.27474E-03   -0.21858E-04   753   0.838E-03    0.865E-02
RMM:  24    -0.116470961138E+04    0.31999E-04   -0.34211E-05   685   0.789E-03
   4 F= -.11717224E+04 E0= -.11717224E+04  d E =-.351648E-01  mag=     1.0000
       N       E                     dE             d eps       ncg     rms          rms(c)
DAV:   1    -0.116470894147E+04    0.70191E-03   -0.17212E-04  1260   0.689E-03    0.819E-02
RMM:   2    -0.116471760106E+04   -0.86596E-02   -0.16427E-02  1029   0.309E-02    0.162E-01
RMM:   3    -0.116469905005E+04    0.18551E-01   -0.26637E-02  1076   0.648E-02    0.818E-02
RMM:   4    -0.116469346079E+04    0.55893E-02   -0.10994E-02  1095   0.550E-02    0.259E-02
RMM:   5    -0.116469453120E+04   -0.10704E-02   -0.61528E-04   979   0.176E-02    0.292E-02
RMM:   6    -0.116469102137E+04    0.35098E-02   -0.20514E-03  1032   0.233E-02    0.235E-02
RMM:   7    -0.116469091861E+04    0.10276E-03   -0.19583E-04   931   0.179E-02    0.251E-02
RMM:   8    -0.116468710662E+04    0.38120E-02   -0.25816E-03   917   0.215E-02    0.229E-02
RMM:   9    -0.116468483759E+04    0.22690E-02   -0.13438E-03   922   0.209E-02    0.209E-02
RMM:  10    -0.116467695897E+04    0.78786E-02   -0.59591E-03  1058   0.369E-02    0.223E-02
RMM:  11    -0.116467700994E+04   -0.50971E-04   -0.25419E-04   938   0.249E-02
   5 F= -.11716898E+04 E0= -.11716898E+04  d E =-.256330E-02  mag=     1.0000
