       N       E                     dE             d eps       ncg     rms          rms(c)
DAV:   1     0.481197634598E+04    0.48120E+04   -0.17979E+05  1908   0.930E+02
DAV:   2    -0.935886839950E+02   -0.49056E+04   -0.45050E+04  2592   0.210E+02
DAV:   3    -0.120132301059E+04   -0.11077E+04   -0.11018E+04  2052   0.108E+02
DAV:   4    -0.124649708709E+04   -0.45174E+02   -0.44900E+02  1944   0.288E+01
DAV:   5    -0.124770563624E+04   -0.12085E+01   -0.12054E+01  2304   0.446E+00    0.671E+01
RMM:   6    -0.123112122495E+04    0.16584E+02   -0.31322E+01  1590   0.537E+00    0.547E+01
RMM:   7    -0.121755504496E+04    0.13566E+02   -0.75350E+00  1584   0.309E+00    0.427E+01
RMM:   8    -0.119409257757E+04    0.23462E+02   -0.22909E+01  1584   0.555E+00    0.294E+01
RMM:   9    -0.117912773095E+04    0.14965E+02   -0.26239E+01  1584   0.588E+00    0.196E+01
RMM:  10    -0.117970252957E+04   -0.57480E+00   -0.21261E+01  1584   0.521E+00    0.884E+00
RMM:  11    -0.117932127131E+04    0.38126E+00   -0.14429E+00  1628   0.140E+00    0.584E+00
RMM:  12    -0.117892912688E+04    0.39214E+00   -0.10548E+00  1584   0.112E+00    0.340E+00
RMM:  13    -0.117856451368E+04    0.36461E+00   -0.51309E-01  1584   0.758E-01    0.142E+00
RMM:  14    -0.117854030566E+04    0.24208E-01   -0.94363E-02  1600   0.329E-01    0.581E-01
RMM:  15    -0.117853959462E+04    0.71105E-03   -0.88041E-03  1675   0.106E-01    0.412E-01
RMM:  16    -0.117853912961E+04    0.46501E-03   -0.16812E-03  1520   0.446E-02    0.317E-01
RMM:  17    -0.117853899022E+04    0.13938E-03   -0.22486E-03  1584   0.593E-02    0.141E-01
RMM:  18    -0.117853898959E+04    0.63430E-06   -0.26304E-04  1134   0.182E-02
   1 F= -.11857556E+04 E0= -.11857556E+04  d E =-.118576E+04  mag=     0.0074
       N       E                     dE             d eps       ncg     rms          rms(c)
DAV:   1    -0.117853503367E+04    0.39566E-02   -0.17107E+00  1620   0.208E+00    0.459E-01
RMM:   2    -0.117854076652E+04   -0.57328E-02   -0.72171E-02  1593   0.339E-01    0.426E-01
RMM:   3    -0.117853898699E+04    0.17795E-02   -0.25779E-03  1685   0.635E-02    0.387E-01
RMM:   4    -0.117853842008E+04    0.56691E-03   -0.35249E-03  1584   0.674E-02    0.157E-01
RMM:   5    -0.117853865127E+04   -0.23118E-03   -0.88369E-04  1583   0.351E-02    0.824E-02
RMM:   6    -0.117853848615E+04    0.16512E-03   -0.36312E-04  1303   0.197E-02    0.402E-02
RMM:   7    -0.117853850629E+04   -0.20138E-04   -0.45690E-05  1000   0.958E-03
   2 F= -.11857557E+04 E0= -.11857557E+04  d E =-.126406E-03  mag=     0.0001
       N       E                     dE             d eps       ncg     rms          rms(c)
DAV:   1    -0.117854051706E+04   -0.20309E-02   -0.42641E-01  1656   0.104E+00    0.234E-01
RMM:   2    -0.117854182881E+04   -0.13118E-02   -0.16932E-02  1588   0.164E-01    0.223E-01
RMM:   3    -0.117854136597E+04    0.46284E-03   -0.55899E-04  1253   0.299E-02    0.204E-01
RMM:   4    -0.117854122058E+04    0.14539E-03   -0.93891E-04  1562   0.356E-02    0.764E-02
RMM:   5    -0.117854127071E+04   -0.50133E-04   -0.16261E-04  1031   0.168E-02
   3 F= -.11857582E+04 E0= -.11857582E+04  d E =-.258476E-02  mag=     0.0000
       N       E                     dE             d eps       ncg     rms          rms(c)
DAV:   1    -0.117854002139E+04    0.11992E-02   -0.12535E+00  1656   0.168E+00    0.392E-01
RMM:   2    -0.117854254040E+04   -0.25190E-02   -0.36400E-02  1586   0.245E-01    0.351E-01
RMM:   3    -0.117854134692E+04    0.11935E-02   -0.12798E-03  1461   0.466E-02    0.299E-01
RMM:   4    -0.117854094056E+04    0.40636E-03   -0.34517E-03  1584   0.656E-02    0.104E-01
RMM:   5    -0.117854099921E+04   -0.58643E-04   -0.28702E-04  1170   0.218E-02
   4 F= -.11857582E+04 E0= -.11857582E+04  d E =-.605331E-04  mag=     0.0000
       N       E                     dE             d eps       ncg     rms          rms(c)
DAV:   1    -0.117854240750E+04   -0.14669E-02   -0.32591E-01  1728   0.852E-01    0.197E-01
RMM:   2    -0.117854296830E+04   -0.56080E-03   -0.92795E-03  1588   0.122E-01    0.177E-01
RMM:   3    -0.117854257752E+04    0.39078E-03   -0.32765E-04  1142   0.244E-02    0.149E-01
RMM:   4    -0.117854240235E+04    0.17516E-03   -0.13882E-03  1584   0.414E-02    0.526E-02
RMM:   5    -0.117854241193E+04   -0.95760E-05   -0.73476E-05  1002   0.120E-02
   5 F= -.11857595E+04 E0= -.11857595E+04  d E =-.130458E-02  mag=     0.0000
       N       E                     dE             d eps       ncg     rms          rms(c)
DAV:   1    -0.117854212694E+04    0.27542E-03   -0.42998E-01  1728   0.106E+00    0.181E-01
RMM:   2    -0.117854350840E+04   -0.13815E-02   -0.16972E-02  1590   0.162E-01    0.148E-01
RMM:   3    -0.117854296637E+04    0.54203E-03   -0.54220E-04  1232   0.308E-02    0.123E-01
RMM:   4    -0.117854295180E+04    0.14576E-04   -0.11041E-03  1550   0.363E-02    0.439E-02
RMM:   5    -0.117854293896E+04    0.12832E-04   -0.38678E-05  1012   0.907E-03
   6 F= -.11857602E+04 E0= -.11857602E+04  d E =-.771441E-03  mag=     0.0000
       N       E                     dE             d eps       ncg     rms          rms(c)
DAV:   1    -0.117854302899E+04   -0.77198E-04   -0.17910E-02  1800   0.216E-01    0.364E-02
RMM:   2    -0.117854308093E+04   -0.51933E-04   -0.65370E-04  1138   0.317E-02
   7 F= -.11857603E+04 E0= -.11857603E+04  d E =-.863691E-03  mag=     0.0000
