       N       E                     dE             d eps       ncg     rms          rms(c)
DAV:   1     0.508201459397E+04    0.50820E+04   -0.17489E+05  1836   0.929E+02
DAV:   2    -0.123464044069E+02   -0.50944E+04   -0.46682E+04  2592   0.212E+02
DAV:   3    -0.119057057803E+04   -0.11782E+04   -0.11723E+04  2016   0.113E+02
DAV:   4    -0.124008807570E+04   -0.49517E+02   -0.49183E+02  2052   0.309E+01
DAV:   5    -0.124134568026E+04   -0.12576E+01   -0.12532E+01  2304   0.449E+00    0.671E+01
RMM:   6    -0.122750688426E+04    0.13839E+02   -0.30115E+01  1584   0.530E+00    0.639E+01
RMM:   7    -0.121783186590E+04    0.96750E+01   -0.30506E+00  1584   0.210E+00    0.474E+01
RMM:   8    -0.120121283237E+04    0.16619E+02   -0.10708E+01  1584   0.387E+00    0.363E+01
RMM:   9    -0.117810072194E+04    0.23112E+02   -0.41141E+01  1584   0.745E+00    0.220E+01
RMM:  10    -0.117619810954E+04    0.19026E+01   -0.22937E+01  1584   0.550E+00    0.105E+01
RMM:  11    -0.117676371798E+04   -0.56561E+00   -0.18003E+00  1603   0.167E+00    0.761E+00
RMM:  12    -0.117625118200E+04    0.51254E+00   -0.11957E+00  1584   0.106E+00    0.478E+00
RMM:  13    -0.117601740920E+04    0.23377E+00   -0.52167E-01  1584   0.734E-01    0.235E+00
RMM:  14    -0.117591638302E+04    0.10103E+00   -0.40272E-01  1584   0.700E-01    0.810E-01
RMM:  15    -0.117591384336E+04    0.25397E-02   -0.10381E-02  1610   0.130E-01    0.471E-01
RMM:  16    -0.117591170076E+04    0.21426E-02   -0.98319E-03  1585   0.116E-01    0.263E-01
RMM:  17    -0.117591235010E+04   -0.64934E-03   -0.37911E-03  1585   0.653E-02    0.191E-01
RMM:  18    -0.117591193542E+04    0.41468E-03   -0.13383E-03  1546   0.356E-02    0.131E-01
RMM:  19    -0.117591199885E+04   -0.63427E-04   -0.15172E-04  1035   0.118E-02
   1 F= -.11831002E+04 E0= -.11831002E+04  d E =-.118310E+04  mag=     1.0038
       N       E                     dE             d eps       ncg     rms          rms(c)
DAV:   1    -0.117590607813E+04    0.58573E-02   -0.22220E+00  1728   0.221E+00    0.638E-01
RMM:   2    -0.117591041952E+04   -0.43414E-02   -0.53250E-02  1584   0.313E-01    0.620E-01
RMM:   3    -0.117591012279E+04    0.29673E-03   -0.33295E-03  1656   0.648E-02    0.574E-01
RMM:   4    -0.117590828440E+04    0.18384E-02   -0.52502E-03  1585   0.838E-02    0.244E-01
RMM:   5    -0.117590847501E+04   -0.19061E-03   -0.21480E-03  1581   0.538E-02    0.912E-02
RMM:   6    -0.117590826080E+04    0.21421E-03   -0.41154E-04  1339   0.218E-02    0.480E-02
RMM:   7    -0.117590824797E+04    0.12828E-04   -0.68819E-05   997   0.109E-02
   2 F= -.11830972E+04 E0= -.11830972E+04  d E =0.294287E-02  mag=     1.0000
       N       E                     dE             d eps       ncg     rms          rms(c)
DAV:   1    -0.117591356027E+04   -0.52995E-02   -0.80775E-01  1764   0.133E+00    0.392E-01
RMM:   2    -0.117591491790E+04   -0.13576E-02   -0.17293E-02  1587   0.182E-01    0.381E-01
RMM:   3    -0.117591477751E+04    0.14039E-03   -0.99159E-04  1346   0.362E-02    0.347E-01
RMM:   4    -0.117591415075E+04    0.62676E-03   -0.20782E-03  1583   0.533E-02    0.129E-01
RMM:   5    -0.117591420711E+04   -0.56358E-04   -0.51394E-04  1421   0.273E-02
   3 F= -.11831027E+04 E0= -.11831027E+04  d E =-.253257E-02  mag=     1.0000
       N       E                     dE             d eps       ncg     rms          rms(c)
DAV:   1    -0.117591481556E+04   -0.66481E-03   -0.49141E-01  1656   0.108E+00    0.288E-01
RMM:   2    -0.117591535763E+04   -0.54207E-03   -0.10606E-02  1584   0.152E-01    0.242E-01
RMM:   3    -0.117591493574E+04    0.42189E-03   -0.67634E-04  1360   0.341E-02    0.195E-01
RMM:   4    -0.117591441266E+04    0.52308E-03   -0.18165E-03  1584   0.484E-02    0.805E-02
RMM:   5    -0.117591441831E+04   -0.56574E-05   -0.25720E-04  1126   0.196E-02
   4 F= -.11831027E+04 E0= -.11831027E+04  d E =-.481518E-04  mag=     1.0000
       N       E                     dE             d eps       ncg     rms          rms(c)
DAV:   1    -0.117591521845E+04   -0.80579E-03   -0.11291E-01  1692   0.518E-01    0.132E-01
RMM:   2    -0.117591529882E+04   -0.80367E-04   -0.22857E-03  1580   0.707E-02    0.112E-01
RMM:   3    -0.117591516963E+04    0.12919E-03   -0.14951E-04  1010   0.169E-02    0.884E-02
RMM:   4    -0.117591503110E+04    0.13852E-03   -0.56387E-04  1517   0.271E-02    0.363E-02
RMM:   5    -0.117591503401E+04   -0.29041E-05   -0.53784E-05   978   0.971E-03
   5 F= -.11831034E+04 E0= -.11831034E+04  d E =-.742043E-03  mag=     1.0000
