       N       E                     dE             d eps       ncg     rms          rms(c)
DAV:   1     0.508925340996E+04    0.50893E+04   -0.17553E+05  1836   0.933E+02
DAV:   2    -0.166128046665E+00   -0.50894E+04   -0.46659E+04  2520   0.214E+02
DAV:   3    -0.118220354839E+04   -0.11820E+04   -0.11754E+04  2052   0.114E+02
DAV:   4    -0.123233726021E+04   -0.50134E+02   -0.49872E+02  2016   0.310E+01
DAV:   5    -0.123356210969E+04   -0.12248E+01   -0.12219E+01  2304   0.441E+00    0.610E+01
RMM:   6    -0.122210158260E+04    0.11461E+02   -0.67429E+00  1584   0.308E+00    0.497E+01
RMM:   7    -0.118203232954E+04    0.40069E+02   -0.59927E+01  1584   0.905E+00    0.293E+01
RMM:   8    -0.117136719921E+04    0.10665E+02   -0.43447E+01  1584   0.759E+00    0.151E+01
RMM:   9    -0.117273028932E+04   -0.13631E+01   -0.93165E+00  1586   0.358E+00    0.104E+01
RMM:  10    -0.117155372574E+04    0.11766E+01   -0.18432E+00  1587   0.157E+00    0.509E+00
RMM:  11    -0.117154806547E+04    0.56603E-02   -0.71087E-01  1585   0.936E-01    0.625E+00
RMM:  12    -0.117137503735E+04    0.17303E+00   -0.47599E-02  1622   0.258E-01    0.324E+00
RMM:  13    -0.117133460108E+04    0.40436E-01   -0.25762E-01  1584   0.442E-01    0.161E+00
RMM:  14    -0.117132912960E+04    0.54715E-02   -0.32888E-02  1593   0.213E-01    0.135E+00
RMM:  15    -0.117131257450E+04    0.16555E-01   -0.30622E-02  1597   0.172E-01    0.780E-01
RMM:  16    -0.117131740627E+04   -0.48318E-02   -0.98551E-03  1620   0.113E-01    0.638E-01
RMM:  17    -0.117131582821E+04    0.15781E-02   -0.21301E-03  1577   0.463E-02    0.501E-01
RMM:  18    -0.117131531978E+04    0.50843E-03   -0.15258E-03  1368   0.361E-02    0.353E-01
RMM:  19    -0.117131549879E+04   -0.17901E-03   -0.19231E-03  1565   0.506E-02    0.199E-01
RMM:  20    -0.117131523434E+04    0.26445E-03   -0.34890E-03  1597   0.713E-02    0.146E-01
RMM:  21    -0.117131642817E+04   -0.11938E-02   -0.34668E-04  1158   0.217E-02    0.123E-01
RMM:  22    -0.117131661350E+04   -0.18533E-03   -0.76016E-04  1389   0.347E-02    0.141E-01
RMM:  23    -0.117131692596E+04   -0.31247E-03   -0.14040E-04  1052   0.140E-02    0.920E-02
RMM:  24    -0.117131698269E+04   -0.56724E-04   -0.93465E-05  1023   0.122E-02
   1 F= -.11784832E+04 E0= -.11784757E+04  d E =-.117848E+04  mag=     0.7240
       N       E                     dE             d eps       ncg     rms          rms(c)
DAV:   1    -0.117131717693E+04   -0.25097E-03   -0.37810E-01  1692   0.985E-01    0.203E-01
RMM:   2    -0.117131769657E+04   -0.51963E-03   -0.10941E-02  1584   0.146E-01    0.171E-01
RMM:   3    -0.117131739193E+04    0.30463E-03   -0.65109E-04  1402   0.325E-02    0.143E-01
RMM:   4    -0.117131695867E+04    0.43327E-03   -0.13468E-03  1582   0.416E-02    0.687E-02
RMM:   5    -0.117131696549E+04   -0.68233E-05   -0.45299E-04  1396   0.252E-02
   2 F= -.11784832E+04 E0= -.11784769E+04  d E =-.807434E-04  mag=     0.7982
       N       E                     dE             d eps       ncg     rms          rms(c)
DAV:   1    -0.117131803399E+04   -0.10753E-02   -0.94089E-02  1656   0.488E-01    0.926E-02
RMM:   2    -0.117131807410E+04   -0.40110E-04   -0.19373E-03  1584   0.658E-02    0.829E-02
RMM:   3    -0.117131794978E+04    0.12431E-03   -0.10716E-04  1009   0.147E-02    0.682E-02
RMM:   4    -0.117131780685E+04    0.14293E-03   -0.61269E-04  1531   0.278E-02    0.253E-02
RMM:   5    -0.117131780872E+04   -0.18670E-05   -0.36551E-05   987   0.863E-03
   3 F= -.11784840E+04 E0= -.11784778E+04  d E =-.873594E-03  mag=     0.7988
