       N       E                     dE             d eps       ncg     rms          rms(c)
DAV:   1     0.471484253008E+04    0.47148E+04   -0.17692E+05  1908   0.917E+02
DAV:   2    -0.102042693476E+03   -0.48169E+04   -0.44091E+04  2520   0.207E+02
DAV:   3    -0.119939277754E+04   -0.10974E+04   -0.10926E+04  2088   0.108E+02
DAV:   4    -0.124356780860E+04   -0.44175E+02   -0.43929E+02  2088   0.285E+01
DAV:   5    -0.124471825057E+04   -0.11504E+01   -0.11482E+01  2412   0.432E+00    0.727E+01
RMM:   6    -0.122546165203E+04    0.19257E+02   -0.17827E+01  1770   0.418E+00    0.553E+01
RMM:   7    -0.119846495349E+04    0.26997E+02   -0.31135E+01  1617   0.621E+00    0.366E+01
RMM:   8    -0.117779262536E+04    0.20672E+02   -0.35054E+01  1588   0.668E+00    0.240E+01
RMM:   9    -0.117554812975E+04    0.22445E+01   -0.34701E+01  1594   0.647E+00    0.107E+01
RMM:  10    -0.117604649667E+04   -0.49837E+00   -0.21488E+00  1754   0.187E+00    0.841E+00
RMM:  11    -0.117504148224E+04    0.10050E+01   -0.29161E+00  1610   0.177E+00    0.303E+00
RMM:  12    -0.117484742434E+04    0.19406E+00   -0.21539E-01  1825   0.522E-01    0.199E+00
RMM:  13    -0.117479342382E+04    0.54001E-01   -0.29052E-01  1597   0.595E-01    0.422E-01
RMM:  14    -0.117479312794E+04    0.29588E-03   -0.13265E-02  1736   0.170E-01    0.294E-01
RMM:  15    -0.117479277829E+04    0.34965E-03   -0.30225E-03  1696   0.614E-02    0.191E-01
RMM:  16    -0.117479308475E+04   -0.30645E-03   -0.14899E-03  1694   0.461E-02    0.138E-01
RMM:  17    -0.117479306073E+04    0.24013E-04   -0.33323E-04  1202   0.238E-02
   1 F= -.11821015E+04 E0= -.11820983E+04  d E =-.118210E+04  mag=    -0.9205
       N       E                     dE             d eps       ncg     rms          rms(c)
DAV:   1    -0.117478090563E+04    0.12179E-01   -0.93850E-01  1656   0.152E+00    0.532E-01
RMM:   2    -0.117478902133E+04   -0.81157E-02   -0.90860E-02  1914   0.350E-01    0.546E-01
RMM:   3    -0.117478912932E+04   -0.10799E-03   -0.51301E-03  1671   0.815E-02    0.628E-01
RMM:   4    -0.117478913555E+04   -0.62261E-05   -0.72563E-04  1187   0.214E-02
   2 F= -.11820988E+04 E0= -.11820956E+04  d E =0.265787E-02  mag=    -0.9162
       N       E                     dE             d eps       ncg     rms          rms(c)
DAV:   1    -0.117478901107E+04    0.11825E-03   -0.45486E-01  1584   0.106E+00    0.219E-01
RMM:   2    -0.117479331490E+04   -0.43038E-02   -0.42850E-02  1907   0.247E-01    0.842E-02
RMM:   3    -0.117479348570E+04   -0.17080E-03   -0.22978E-03  1387   0.555E-02    0.166E-01
RMM:   4    -0.117479350001E+04   -0.14310E-04   -0.31960E-04  1115   0.166E-02
   3 F= -.11821023E+04 E0= -.11820991E+04  d E =-.839360E-03  mag=    -0.9150
