       N       E                     dE             d eps       ncg     rms          rms(c)
DAV:   1     0.492824955306E+04    0.49282E+04   -0.16895E+05  1800   0.904E+02
DAV:   2    -0.444740294051E+02   -0.49727E+04   -0.45237E+04  2520   0.209E+02
DAV:   3    -0.117877946595E+04   -0.11343E+04   -0.11285E+04  2160   0.110E+02
DAV:   4    -0.122419337191E+04   -0.45414E+02   -0.45207E+02  2016   0.289E+01
DAV:   5    -0.122535503009E+04   -0.11617E+01   -0.11596E+01  2340   0.426E+00    0.629E+01
RMM:   6    -0.120933707467E+04    0.16018E+02   -0.20428E+01  1584   0.473E+00    0.529E+01
RMM:   7    -0.119577045550E+04    0.13567E+02   -0.67220E+00  1584   0.305E+00    0.425E+01
RMM:   8    -0.116847768886E+04    0.27293E+02   -0.35724E+01  1584   0.687E+00    0.261E+01
RMM:   9    -0.115964337874E+04    0.88343E+01   -0.19688E+01  1584   0.507E+00    0.174E+01
RMM:  10    -0.116075902409E+04   -0.11156E+01   -0.14404E+01  1584   0.430E+00    0.871E+00
RMM:  11    -0.116046149586E+04    0.29753E+00   -0.53044E-01  1635   0.955E-01    0.660E+00
RMM:  12    -0.116008308466E+04    0.37841E+00   -0.81111E-01  1584   0.913E-01    0.474E+00
RMM:  13    -0.115977131466E+04    0.31177E+00   -0.53351E-01  1584   0.819E-01    0.135E+00
RMM:  14    -0.115975439998E+04    0.16915E-01   -0.98023E-02  1584   0.361E-01    0.751E-01
RMM:  15    -0.115975529062E+04   -0.89064E-03   -0.15087E-02  1619   0.148E-01    0.391E-01
RMM:  16    -0.115975446060E+04    0.83002E-03   -0.59627E-03  1586   0.850E-02    0.232E-01
RMM:  17    -0.115975467820E+04   -0.21760E-03   -0.11650E-03  1548   0.414E-02    0.155E-01
RMM:  18    -0.115975479353E+04   -0.11533E-03   -0.37458E-04  1230   0.228E-02    0.105E-01
RMM:  19    -0.115975485188E+04   -0.58354E-04   -0.24989E-04  1097   0.201E-02
   1 F= -.11668557E+04 E0= -.11668545E+04  d E =-.116686E+04  mag=    -0.9715
       N       E                     dE             d eps       ncg     rms          rms(c)
DAV:   1    -0.115975342077E+04    0.13728E-02   -0.10233E+00  1800   0.150E+00    0.307E-01
RMM:   2    -0.115975506365E+04   -0.16429E-02   -0.23810E-02  1584   0.213E-01    0.297E-01
RMM:   3    -0.115975484743E+04    0.21621E-03   -0.15513E-03  1591   0.465E-02    0.282E-01
RMM:   4    -0.115975384672E+04    0.10007E-02   -0.17547E-03  1584   0.493E-02    0.155E-01
RMM:   5    -0.115975372106E+04    0.12566E-03   -0.10391E-03  1584   0.373E-02    0.823E-02
RMM:   6    -0.115975370894E+04    0.12124E-04   -0.11933E-04  1038   0.140E-02
   2 F= -.11668547E+04 E0= -.11668535E+04  d E =0.102025E-02  mag=    -0.9732
       N       E                     dE             d eps       ncg     rms          rms(c)
DAV:   1    -0.115975662043E+04   -0.28994E-02   -0.33593E-01  1692   0.858E-01    0.179E-01
RMM:   2    -0.115975697571E+04   -0.35529E-03   -0.65063E-03  1584   0.116E-01    0.173E-01
RMM:   3    -0.115975685723E+04    0.11848E-03   -0.37102E-04  1213   0.244E-02    0.163E-01
RMM:   4    -0.115975644477E+04    0.41246E-03   -0.86926E-04  1568   0.347E-02    0.819E-02
RMM:   5    -0.115975640852E+04    0.36253E-04   -0.24128E-04  1106   0.194E-02
   3 F= -.11668573E+04 E0= -.11668561E+04  d E =-.161038E-02  mag=    -0.9731
       N       E                     dE             d eps       ncg     rms          rms(c)
DAV:   1    -0.115975793164E+04   -0.14869E-02   -0.63380E-01  1728   0.117E+00    0.256E-01
RMM:   2    -0.115975838874E+04   -0.45710E-03   -0.10818E-02  1584   0.149E-01    0.228E-01
RMM:   3    -0.115975798877E+04    0.39998E-03   -0.78949E-04  1367   0.349E-02    0.198E-01
RMM:   4    -0.115975732449E+04    0.66428E-03   -0.16289E-03  1584   0.455E-02    0.993E-02
RMM:   5    -0.115975730216E+04    0.22323E-04   -0.37090E-04  1243   0.227E-02
   4 F= -.11668583E+04 E0= -.11668570E+04  d E =-.947661E-03  mag=    -0.9716
       N       E                     dE             d eps       ncg     rms          rms(c)
DAV:   1    -0.115975782026E+04   -0.49578E-03   -0.75961E-02  1728   0.407E-01    0.875E-02
RMM:   2    -0.115975784677E+04   -0.26504E-04   -0.12467E-03  1543   0.512E-02    0.764E-02
RMM:   3    -0.115975776458E+04    0.82188E-04   -0.94867E-05  1007   0.133E-02
   5 F= -.11668587E+04 E0= -.11668574E+04  d E =-.139193E-02  mag=    -0.9722
       N       E                     dE             d eps       ncg     rms          rms(c)
DAV:   1    -0.115975776278E+04    0.83989E-04   -0.30219E-01  1728   0.845E-01    0.175E-01
RMM:   2    -0.115975805098E+04   -0.28820E-03   -0.60787E-03  1584   0.120E-01    0.166E-01
RMM:   3    -0.115975781316E+04    0.23782E-03   -0.30702E-04  1171   0.245E-02    0.148E-01
RMM:   4    -0.115975729040E+04    0.52276E-03   -0.16873E-03  1584   0.462E-02    0.597E-02
RMM:   5    -0.115975727037E+04    0.20035E-04   -0.77353E-05  1019   0.124E-02
   6 F= -.11668582E+04 E0= -.11668569E+04  d E =0.522644E-03  mag=    -0.9720
       N       E                     dE             d eps       ncg     rms          rms(c)
DAV:   1    -0.115975840670E+04   -0.11163E-02   -0.11206E-01  1728   0.514E-01    0.939E-02
RMM:   2    -0.115975850891E+04   -0.10222E-03   -0.22024E-03  1584   0.720E-02    0.870E-02
RMM:   3    -0.115975841868E+04    0.90228E-04   -0.99775E-05  1021   0.147E-02
   7 F= -.11668593E+04 E0= -.11668581E+04  d E =-.641934E-03  mag=    -0.9724
