       N       E                     dE             d eps       ncg     rms          rms(c)
DAV:   1     0.496151040585E+04    0.49615E+04   -0.17028E+05  1800   0.910E+02
DAV:   2    -0.402544081100E+02   -0.50018E+04   -0.45725E+04  2520   0.211E+02
DAV:   3    -0.117304393447E+04   -0.11328E+04   -0.11281E+04  2124   0.110E+02
DAV:   4    -0.121935153504E+04   -0.46308E+02   -0.46095E+02  2052   0.289E+01
DAV:   5    -0.122051049064E+04   -0.11590E+01   -0.11560E+01  2268   0.420E+00    0.603E+01
RMM:   6    -0.120899570225E+04    0.11515E+02   -0.74277E+00  1584   0.314E+00    0.502E+01
RMM:   7    -0.118992301425E+04    0.19073E+02   -0.15732E+01  1584   0.458E+00    0.403E+01
RMM:   8    -0.116553778157E+04    0.24385E+02   -0.28599E+01  1584   0.616E+00    0.274E+01
RMM:   9    -0.115829899613E+04    0.72388E+01   -0.27191E+01  1584   0.595E+00    0.150E+01
RMM:  10    -0.115927808349E+04   -0.97909E+00   -0.85432E+00  1586   0.343E+00    0.100E+01
RMM:  11    -0.115919524995E+04    0.82834E-01   -0.38222E-01  1727   0.817E-01    0.773E+00
RMM:  12    -0.115835444206E+04    0.84081E+00   -0.21930E+00  1584   0.161E+00    0.471E+00
RMM:  13    -0.115830870729E+04    0.45735E-01   -0.26958E-01  1585   0.602E-01    0.324E+00
RMM:  14    -0.115831941642E+04   -0.10709E-01   -0.23013E-02  1620   0.193E-01    0.222E+00
RMM:  15    -0.115831941834E+04   -0.19207E-05   -0.54396E-02  1586   0.204E-01    0.160E+00
RMM:  16    -0.115831779948E+04    0.16189E-02   -0.68962E-03  1584   0.969E-02    0.298E-01
RMM:  17    -0.115832173322E+04   -0.39337E-02   -0.18979E-03  1588   0.542E-02    0.425E-01
RMM:  18    -0.115832129518E+04    0.43805E-03   -0.18269E-03  1512   0.417E-02    0.252E-01
RMM:  19    -0.115832171805E+04   -0.42287E-03   -0.13788E-03  1541   0.462E-02    0.891E-02
RMM:  20    -0.115832225370E+04   -0.53565E-03   -0.18142E-04  1086   0.172E-02    0.968E-02
RMM:  21    -0.115832232823E+04   -0.74532E-04   -0.13684E-04  1053   0.161E-02
   1 F= -.11654471E+04 E0= -.11654301E+04  d E =-.116545E+04  mag=     1.7885
       N       E                     dE             d eps       ncg     rms          rms(c)
DAV:   1    -0.115832357065E+04   -0.13170E-02   -0.80442E-01  1620   0.133E+00    0.128E+00
RMM:   2    -0.115833255863E+04   -0.89880E-02   -0.28496E-02  1584   0.205E-01    0.278E+00
RMM:   3    -0.115830924318E+04    0.23315E-01   -0.56332E-03  1611   0.796E-02    0.273E-01
RMM:   4    -0.115832140664E+04   -0.12163E-01   -0.75161E-04  1191   0.351E-02    0.235E-01
RMM:   5    -0.115832196664E+04   -0.55999E-03   -0.10253E-03  1535   0.375E-02    0.178E-01
RMM:   6    -0.115832172091E+04    0.24573E-03   -0.14684E-03  1577   0.411E-02    0.199E-01
RMM:   7    -0.115832169311E+04    0.27795E-04   -0.29867E-04  1077   0.196E-02
   2 F= -.11654462E+04 E0= -.11654298E+04  d E =0.893524E-03  mag=     1.8424
       N       E                     dE             d eps       ncg     rms          rms(c)
DAV:   1    -0.115832490549E+04   -0.31846E-02   -0.28524E-01  1692   0.779E-01    0.874E-01
RMM:   2    -0.115832917107E+04   -0.42656E-02   -0.10130E-02  1584   0.119E-01    0.206E+00
RMM:   3    -0.115831611979E+04    0.13051E-01   -0.25911E-03  1366   0.520E-02    0.167E-01
RMM:   4    -0.115832330789E+04   -0.71881E-02   -0.48061E-04  1153   0.288E-02    0.166E-01
RMM:   5    -0.115832387086E+04   -0.56297E-03   -0.96248E-04  1541   0.369E-02    0.274E-01
RMM:   6    -0.115832346673E+04    0.40413E-03   -0.21669E-04  1047   0.157E-02    0.136E-01
RMM:   7    -0.115832377170E+04   -0.30497E-03   -0.91575E-05  1013   0.128E-02    0.148E-01
RMM:   8    -0.115832365226E+04    0.11944E-03   -0.25593E-05   926   0.659E-03    0.989E-02
RMM:   9    -0.115832374589E+04   -0.93631E-04   -0.11785E-04   999   0.965E-03
   3 F= -.11654484E+04 E0= -.11654320E+04  d E =-.130737E-02  mag=     1.8513
       N       E                     dE             d eps       ncg     rms          rms(c)
DAV:   1    -0.115832530892E+04   -0.16567E-02   -0.72078E-01  1692   0.111E+00    0.530E-01
RMM:   2    -0.115832711013E+04   -0.18012E-02   -0.87464E-03  1584   0.131E-01    0.130E+00
RMM:   3    -0.115832081441E+04    0.62957E-02   -0.12431E-03  1322   0.439E-02    0.193E-01
RMM:   4    -0.115832440349E+04   -0.35891E-02   -0.30353E-04  1105   0.245E-02    0.146E-01
RMM:   5    -0.115832476383E+04   -0.36034E-03   -0.14862E-03  1582   0.442E-02    0.966E-02
RMM:   6    -0.115832479679E+04   -0.32961E-04   -0.15080E-04  1052   0.142E-02
   4 F= -.11654496E+04 E0= -.11654336E+04  d E =-.117199E-02  mag=     1.8570
       N       E                     dE             d eps       ncg     rms          rms(c)
DAV:   1    -0.115832480868E+04   -0.44848E-04   -0.42622E-03  1728   0.871E-02    0.811E-02
RMM:   2    -0.115832487786E+04   -0.69180E-04   -0.81234E-05  1005   0.139E-02
   5 F= -.11654497E+04 E0= -.11654336E+04  d E =-.124393E-02  mag=     1.8570
       N       E                     dE             d eps       ncg     rms          rms(c)
DAV:   1    -0.115832553779E+04   -0.72911E-03   -0.30927E-01  1728   0.676E-01    0.286E-01
RMM:   2    -0.115832609042E+04   -0.55263E-03   -0.30080E-03  1584   0.739E-02    0.717E-01
RMM:   3    -0.115832391956E+04    0.21709E-02   -0.40978E-04  1137   0.271E-02    0.121E-01
RMM:   4    -0.115832538868E+04   -0.14691E-02   -0.11045E-04  1035   0.149E-02    0.874E-02
RMM:   5    -0.115832563427E+04   -0.24559E-03   -0.17119E-04  1054   0.163E-02    0.835E-02
RMM:   6    -0.115832563732E+04   -0.30515E-05   -0.68646E-05  1005   0.968E-03
   6 F= -.11654504E+04 E0= -.11654344E+04  d E =-.766931E-03  mag=     1.8614
       N       E                     dE             d eps       ncg     rms          rms(c)
DAV:   1    -0.115832594711E+04   -0.31284E-03   -0.61038E-01  1728   0.949E-01    0.392E-01
RMM:   2    -0.115832692589E+04   -0.97878E-03   -0.58730E-03  1584   0.104E-01    0.955E-01
RMM:   3    -0.115832344403E+04    0.34819E-02   -0.73644E-04  1228   0.355E-02    0.162E-01
RMM:   4    -0.115832547081E+04   -0.20268E-02   -0.16393E-04  1061   0.185E-02    0.112E-01
RMM:   5    -0.115832589186E+04   -0.42105E-03   -0.32927E-04  1186   0.223E-02    0.114E-01
RMM:   6    -0.115832587932E+04    0.12544E-04   -0.13937E-04  1037   0.137E-02
   7 F= -.11654507E+04 E0= -.11654348E+04  d E =-.101958E-02  mag=     1.8662
       N       E                     dE             d eps       ncg     rms          rms(c)
DAV:   1    -0.115832681714E+04   -0.92527E-03   -0.34379E-01  1728   0.695E-01    0.167E-01
RMM:   2    -0.115832712546E+04   -0.30832E-03   -0.28202E-03  1584   0.729E-02    0.376E-01
RMM:   3    -0.115832625695E+04    0.86851E-03   -0.19347E-04  1090   0.209E-02    0.102E-01
RMM:   4    -0.115832691626E+04   -0.65931E-03   -0.69916E-05  1020   0.121E-02    0.802E-02
RMM:   5    -0.115832700388E+04   -0.87626E-04   -0.13702E-04  1040   0.145E-02
   8 F= -.11654517E+04 E0= -.11654357E+04  d E =-.102836E-02  mag=     1.8686
       N       E                     dE             d eps       ncg     rms          rms(c)
DAV:   1    -0.115832716886E+04   -0.25261E-03   -0.18867E+00  1584   0.163E+00    0.423E-01
RMM:   2    -0.115832893420E+04   -0.17653E-02   -0.15343E-02  1584   0.170E-01    0.917E-01
RMM:   3    -0.115832580463E+04    0.31296E-02   -0.11188E-03  1400   0.459E-02    0.241E-01
RMM:   4    -0.115832754712E+04   -0.17425E-02   -0.18541E-04  1093   0.201E-02    0.194E-01
RMM:   5    -0.115832794448E+04   -0.39737E-03   -0.89772E-04  1471   0.348E-02    0.130E-01
RMM:   6    -0.115832803006E+04   -0.85579E-04   -0.20079E-04  1094   0.163E-02
   9 F= -.11654525E+04 E0= -.11654370E+04  d E =-.183655E-02  mag=     1.8725
       N       E                     dE             d eps       ncg     rms          rms(c)
DAV:   1    -0.115832879697E+04   -0.85249E-03   -0.38265E-01  1692   0.727E-01    0.185E-01
RMM:   2    -0.115832920288E+04   -0.40591E-03   -0.32666E-03  1584   0.754E-02    0.369E-01
RMM:   3    -0.115832840369E+04    0.79919E-03   -0.20087E-04  1084   0.211E-02    0.996E-02
RMM:   4    -0.115832905941E+04   -0.65571E-03   -0.73179E-05  1020   0.123E-02    0.721E-02
RMM:   5    -0.115832915723E+04   -0.97816E-04   -0.92865E-05  1021   0.127E-02
  10 F= -.11654536E+04 E0= -.11654378E+04  d E =-.103332E-02  mag=     1.8753
       N       E                     dE             d eps       ncg     rms          rms(c)
DAV:   1    -0.115832893823E+04    0.12118E-03   -0.24145E+00  1584   0.183E+00    0.475E-01
RMM:   2    -0.115833114074E+04   -0.22025E-02   -0.20086E-02  1584   0.188E-01    0.898E-01
RMM:   3    -0.115832822592E+04    0.29148E-02   -0.12524E-03  1434   0.483E-02    0.248E-01
RMM:   4    -0.115833002436E+04   -0.17984E-02   -0.23977E-04  1100   0.220E-02    0.189E-01
RMM:   5    -0.115833044505E+04   -0.42068E-03   -0.72494E-04  1433   0.317E-02    0.123E-01
RMM:   6    -0.115833054097E+04   -0.95921E-04   -0.25015E-04  1115   0.192E-02
  11 F= -.11654547E+04 E0= -.11654394E+04  d E =-.218708E-02  mag=     1.8817
       N       E                     dE             d eps       ncg     rms          rms(c)
DAV:   1    -0.115833140599E+04   -0.96094E-03   -0.55358E-01  1692   0.876E-01    0.232E-01
RMM:   2    -0.115833197408E+04   -0.56809E-03   -0.53549E-03  1584   0.936E-02    0.361E-01
RMM:   3    -0.115833121238E+04    0.76170E-03   -0.27655E-04  1122   0.240E-02    0.115E-01
RMM:   4    -0.115833193408E+04   -0.72169E-03   -0.11117E-04  1023   0.148E-02    0.869E-02
RMM:   5    -0.115833199998E+04   -0.65898E-04   -0.12276E-04  1030   0.142E-02
  12 F= -.11654560E+04 E0= -.11654405E+04  d E =-.128031E-02  mag=     1.8840
       N       E                     dE             d eps       ncg     rms          rms(c)
DAV:   1    -0.115833135834E+04    0.57574E-03   -0.17997E+00  1584   0.158E+00    0.440E-01
RMM:   2    -0.115833318276E+04   -0.18244E-02   -0.17235E-02  1584   0.167E-01    0.661E-01
RMM:   3    -0.115833141159E+04    0.17712E-02   -0.93401E-04  1346   0.413E-02    0.211E-01
RMM:   4    -0.115833289207E+04   -0.14805E-02   -0.28775E-04  1103   0.229E-02    0.159E-01
RMM:   5    -0.115833303062E+04   -0.13855E-03   -0.44903E-04  1273   0.253E-02    0.943E-02
RMM:   6    -0.115833314227E+04   -0.11165E-03   -0.24359E-04  1106   0.201E-02    0.612E-02
RMM:   7    -0.115833315573E+04   -0.13464E-04   -0.36024E-05  1006   0.944E-03
  13 F= -.11654568E+04 E0= -.11654416E+04  d E =-.211993E-02  mag=     1.8875
       N       E                     dE             d eps       ncg     rms          rms(c)
DAV:   1    -0.115833371563E+04   -0.57336E-03   -0.36559E-01  1728   0.690E-01    0.216E-01
RMM:   2    -0.115833410195E+04   -0.38632E-03   -0.35667E-03  1578   0.724E-02    0.318E-01
RMM:   3    -0.115833351756E+04    0.58439E-03   -0.19310E-04  1058   0.197E-02    0.937E-02
RMM:   4    -0.115833406572E+04   -0.54816E-03   -0.78785E-05  1013   0.123E-02    0.687E-02
RMM:   5    -0.115833410529E+04   -0.39579E-04   -0.62931E-05  1000   0.104E-02
  14 F= -.11654576E+04 E0= -.11654425E+04  d E =-.772953E-03  mag=     1.8900
       N       E                     dE             d eps       ncg     rms          rms(c)
DAV:   1    -0.115833281169E+04    0.12540E-02   -0.32838E+00  1584   0.207E+00    0.660E-01
RMM:   2    -0.115833630724E+04   -0.34956E-02   -0.31768E-02  1584   0.214E-01    0.907E-01
RMM:   3    -0.115833360298E+04    0.27043E-02   -0.16758E-03  1486   0.526E-02    0.285E-01
RMM:   4    -0.115833591338E+04   -0.23104E-02   -0.50038E-04  1147   0.279E-02    0.211E-01
RMM:   5    -0.115833612079E+04   -0.20741E-03   -0.57271E-04  1295   0.283E-02    0.123E-01
RMM:   6    -0.115833630487E+04   -0.18408E-03   -0.44977E-04  1286   0.262E-02    0.698E-02
RMM:   7    -0.115833631705E+04   -0.12183E-04   -0.39481E-05  1008   0.977E-03
  15 F= -.11654593E+04 E0= -.11654446E+04  d E =-.246108E-02  mag=     1.8963
       N       E                     dE             d eps       ncg     rms          rms(c)
DAV:   1    -0.115833755243E+04   -0.12476E-02   -0.15324E-01  1728   0.485E-01    0.156E-01
RMM:   2    -0.115833773864E+04   -0.18620E-03   -0.18957E-03  1578   0.577E-02    0.233E-01
RMM:   3    -0.115833744821E+04    0.29042E-03   -0.10997E-04  1026   0.156E-02    0.672E-02
RMM:   4    -0.115833768314E+04   -0.23493E-03   -0.51819E-05  1000   0.101E-02    0.462E-02
RMM:   5    -0.115833770860E+04   -0.25460E-04   -0.65991E-05   993   0.103E-02
  16 F= -.11654606E+04 E0= -.11654460E+04  d E =-.129717E-02  mag=     1.8977
       N       E                     dE             d eps       ncg     rms          rms(c)
DAV:   1    -0.115833798742E+04   -0.30428E-03   -0.12025E+00  1584   0.136E+00    0.459E-01
RMM:   2    -0.115833937033E+04   -0.13829E-02   -0.14707E-02  1586   0.159E-01    0.684E-01
RMM:   3    -0.115833762061E+04    0.17497E-02   -0.86336E-04  1339   0.395E-02    0.189E-01
RMM:   4    -0.115833896868E+04   -0.13481E-02   -0.29484E-04  1096   0.225E-02    0.131E-01
RMM:   5    -0.115833912624E+04   -0.15756E-03   -0.53149E-04  1379   0.263E-02    0.782E-02
RMM:   6    -0.115833918967E+04   -0.63423E-04   -0.14359E-04  1039   0.162E-02
  17 F= -.11654618E+04 E0= -.11654475E+04  d E =-.252026E-02  mag=     1.9002
       N       E                     dE             d eps       ncg     rms          rms(c)
DAV:   1    -0.115833979714E+04   -0.67089E-03   -0.10474E-01  1692   0.379E-01    0.138E-01
RMM:   2    -0.115833989917E+04   -0.10204E-03   -0.11217E-03  1395   0.414E-02    0.199E-01
RMM:   3    -0.115833968976E+04    0.20942E-03   -0.81518E-05  1018   0.136E-02    0.548E-02
RMM:   4    -0.115833987610E+04   -0.18634E-03   -0.34769E-05   997   0.824E-03    0.382E-02
RMM:   5    -0.115833990158E+04   -0.25488E-04   -0.25431E-05   988   0.679E-03
  18 F= -.11654625E+04 E0= -.11654481E+04  d E =-.645011E-03  mag=     1.9010
       N       E                     dE             d eps       ncg     rms          rms(c)
DAV:   1    -0.115834049490E+04   -0.61880E-03   -0.94696E-01  1584   0.114E+00    0.402E-01
RMM:   2    -0.115834137847E+04   -0.88357E-03   -0.10201E-02  1584   0.125E-01    0.582E-01
RMM:   3    -0.115834003053E+04    0.13479E-02   -0.59227E-04  1218   0.324E-02    0.159E-01
RMM:   4    -0.115834118957E+04   -0.11590E-02   -0.21806E-04  1055   0.195E-02    0.106E-01
RMM:   5    -0.115834132842E+04   -0.13885E-03   -0.24657E-04  1094   0.191E-02    0.653E-02
RMM:   6    -0.115834138817E+04   -0.59749E-04   -0.16235E-04  1042   0.165E-02
  19 F= -.11654638E+04 E0= -.11654496E+04  d E =-.193345E-02  mag=     1.9036
       N       E                     dE             d eps       ncg     rms          rms(c)
DAV:   1    -0.115834247039E+04   -0.11420E-02   -0.40379E-02  1728   0.284E-01    0.783E-02
RMM:   2    -0.115834251259E+04   -0.42201E-04   -0.62171E-04  1436   0.378E-02
  20 F= -.11654649E+04 E0= -.11654505E+04  d E =-.111621E-02  mag=     1.9045
       N       E                     dE             d eps       ncg     rms          rms(c)
DAV:   1    -0.115834340870E+04   -0.93830E-03   -0.15627E-01  1656   0.561E-01    0.169E-01
RMM:   2    -0.115834361204E+04   -0.20335E-03   -0.24658E-03  1596   0.753E-02    0.192E-01
RMM:   3    -0.115834342144E+04    0.19061E-03   -0.13314E-04  1077   0.174E-02    0.993E-02
RMM:   4    -0.115834348492E+04   -0.63487E-04   -0.18598E-04  1062   0.174E-02
  21 F= -.11654658E+04 E0= -.11654519E+04  d E =-.207582E-02  mag=     1.9077
       N       E                     dE             d eps       ncg     rms          rms(c)
DAV:   1    -0.115834398191E+04   -0.56047E-03   -0.32424E-02  1656   0.239E-01    0.837E-02
RMM:   2    -0.115834399909E+04   -0.17185E-04   -0.37597E-04  1201   0.292E-02
  22 F= -.11654663E+04 E0= -.11654522E+04  d E =-.512024E-03  mag=     1.9083
       N       E                     dE             d eps       ncg     rms          rms(c)
DAV:   1    -0.115834440104E+04   -0.41913E-03   -0.89874E-02  1728   0.398E-01    0.146E-01
RMM:   2    -0.115834448344E+04   -0.82402E-04   -0.10980E-03  1560   0.490E-02    0.161E-01
RMM:   3    -0.115834436383E+04    0.11961E-03   -0.70035E-05  1025   0.127E-02    0.859E-02
RMM:   4    -0.115834442472E+04   -0.60886E-04   -0.88301E-05  1009   0.127E-02
  23 F= -.11654668E+04 E0= -.11654530E+04  d E =-.935387E-03  mag=     1.9109
