       N       E                     dE             d eps       ncg     rms          rms(c)
DAV:   1     0.461326730087E+04    0.46133E+04   -0.17615E+05  1944   0.917E+02
DAV:   2    -0.103473647971E+03   -0.47167E+04   -0.42994E+04  2520   0.204E+02
DAV:   3    -0.119353569259E+04   -0.10901E+04   -0.10848E+04  2124   0.107E+02
DAV:   4    -0.123583349245E+04   -0.42298E+02   -0.42084E+02  2052   0.279E+01
DAV:   5    -0.123690231647E+04   -0.10688E+01   -0.10659E+01  2340   0.410E+00    0.660E+01
RMM:   6    -0.121837710358E+04    0.18525E+02   -0.24246E+01  1584   0.483E+00    0.531E+01
RMM:   7    -0.120074264631E+04    0.17634E+02   -0.12239E+01  1584   0.393E+00    0.419E+01
RMM:   8    -0.117639046915E+04    0.24352E+02   -0.44733E+01  1584   0.766E+00    0.325E+01
RMM:   9    -0.117235465979E+04    0.40358E+01   -0.17043E+00  1616   0.163E+00    0.245E+01
RMM:  10    -0.116964199355E+04    0.27127E+01   -0.25075E+01  1584   0.545E+00    0.132E+01
RMM:  11    -0.117196174583E+04   -0.23198E+01   -0.54166E+00  1584   0.258E+00    0.105E+01
RMM:  12    -0.117001404300E+04    0.19477E+01   -0.14939E+00  1584   0.132E+00    0.707E+00
RMM:  13    -0.116913886413E+04    0.87518E+00   -0.10292E+00  1584   0.944E-01    0.433E+00
RMM:  14    -0.116874081828E+04    0.39805E+00   -0.37521E-01  1586   0.478E-01    0.306E+00
RMM:  15    -0.116847344014E+04    0.26738E+00   -0.13223E-01  1594   0.243E-01    0.241E+00
RMM:  16    -0.116834329246E+04    0.13015E+00   -0.41441E-02  1586   0.175E-01    0.216E+00
RMM:  17    -0.116824100168E+04    0.10229E+00   -0.38371E-01  1584   0.411E-01    0.482E+00
RMM:  18    -0.116821542127E+04    0.25580E-01   -0.31261E-02  1634   0.107E-01    0.474E+00
RMM:  19    -0.116820570244E+04    0.97188E-02   -0.10057E-03  1224   0.280E-02    0.475E+00
RMM:  20    -0.116820686624E+04   -0.11638E-02   -0.35247E-04  1097   0.161E-02    0.470E+00
RMM:  21    -0.116818530466E+04    0.21562E-01   -0.30136E-02  1579   0.948E-02    0.365E+00
RMM:  22    -0.116813851733E+04    0.46787E-01   -0.72683E-02  1583   0.120E-01    0.159E+00
RMM:  23    -0.116814611335E+04   -0.75960E-02   -0.31806E-02  1569   0.826E-02    0.745E-01
RMM:  24    -0.116815349112E+04   -0.73778E-02   -0.75311E-03  1587   0.802E-02    0.613E-01
RMM:  25    -0.116814995110E+04    0.35400E-02   -0.40225E-03  1584   0.545E-02    0.391E-01
RMM:  26    -0.116815012321E+04   -0.17211E-03   -0.59419E-04  1213   0.272E-02    0.262E-01
RMM:  27    -0.116814985384E+04    0.26937E-03   -0.11652E-03  1254   0.305E-02    0.198E-01
RMM:  28    -0.116814999050E+04   -0.13666E-03   -0.34035E-04  1081   0.161E-02    0.174E-01
RMM:  29    -0.116814993633E+04    0.54166E-04   -0.18074E-04  1038   0.112E-02
   1 F= -.11754772E+04 E0= -.11754772E+04  d E =-.117548E+04  mag=    -0.9928
       N       E                     dE             d eps       ncg     rms          rms(c)
DAV:   1    -0.116814460876E+04    0.53817E-02   -0.23502E+00  1620   0.223E+00    0.788E-01
RMM:   2    -0.116814760067E+04   -0.29919E-02   -0.55827E-02  1585   0.296E-01    0.641E-01
RMM:   3    -0.116814744740E+04    0.15327E-03   -0.35485E-03  1623   0.638E-02    0.586E-01
RMM:   4    -0.116814616886E+04    0.12785E-02   -0.57520E-03  1584   0.810E-02    0.244E-01
RMM:   5    -0.116814621792E+04   -0.49062E-04   -0.10734E-03  1581   0.378E-02    0.118E-01
RMM:   6    -0.116814633757E+04   -0.11964E-03   -0.19940E-04  1066   0.148E-02    0.704E-02
RMM:   7    -0.116814628115E+04    0.56417E-04   -0.33571E-04  1190   0.189E-02
   2 F= -.11754750E+04 E0= -.11754750E+04  d E =0.222778E-02  mag=    -1.0001
       N       E                     dE             d eps       ncg     rms          rms(c)
DAV:   1    -0.116815237021E+04   -0.60326E-02   -0.73649E-01  1764   0.124E+00    0.470E-01
RMM:   2    -0.116815292378E+04   -0.55357E-03   -0.15745E-02  1586   0.160E-01    0.372E-01
RMM:   3    -0.116815281700E+04    0.10677E-03   -0.97853E-04  1319   0.339E-02    0.335E-01
RMM:   4    -0.116815233757E+04    0.47943E-03   -0.18425E-03  1580   0.468E-02    0.137E-01
RMM:   5    -0.116815235273E+04   -0.15165E-04   -0.38642E-04  1297   0.232E-02
   3 F= -.11754803E+04 E0= -.11754803E+04  d E =-.305115E-02  mag=    -0.9999
       N       E                     dE             d eps       ncg     rms          rms(c)
DAV:   1    -0.116815560522E+04   -0.32676E-02   -0.76245E-01  1728   0.133E+00    0.409E-01
RMM:   2    -0.116815589843E+04   -0.29321E-03   -0.15168E-02  1584   0.173E-01    0.342E-01
RMM:   3    -0.116815458238E+04    0.13161E-02   -0.13033E-03  1599   0.455E-02    0.267E-01
RMM:   4    -0.116815324543E+04    0.13369E-02   -0.59359E-03  1584   0.837E-02    0.887E-02
RMM:   5    -0.116815326521E+04   -0.19775E-04   -0.18487E-04  1076   0.180E-02
   4 F= -.11754810E+04 E0= -.11754810E+04  d E =-.684705E-03  mag=    -0.9999
       N       E                     dE             d eps       ncg     rms          rms(c)
DAV:   1    -0.116815438690E+04   -0.11415E-02   -0.14186E-01  1728   0.574E-01    0.164E-01
RMM:   2    -0.116815440210E+04   -0.15203E-04   -0.25705E-03  1582   0.708E-02    0.138E-01
RMM:   3    -0.116815412437E+04    0.27773E-03   -0.24114E-04  1086   0.203E-02    0.105E-01
RMM:   4    -0.116815388559E+04    0.23878E-03   -0.12741E-03  1584   0.391E-02    0.338E-02
RMM:   5    -0.116815389082E+04   -0.52294E-05   -0.23873E-05   983   0.737E-03
   5 F= -.11754817E+04 E0= -.11754817E+04  d E =-.140690E-02  mag=    -0.9999
       N       E                     dE             d eps       ncg     rms          rms(c)
DAV:   1    -0.116815418318E+04   -0.29759E-03   -0.28050E-01  1728   0.795E-01    0.165E-01
RMM:   2    -0.116815448209E+04   -0.29891E-03   -0.60352E-03  1584   0.110E-01    0.117E-01
RMM:   3    -0.116815438172E+04    0.10037E-03   -0.23611E-04  1123   0.214E-02    0.106E-01
RMM:   4    -0.116815421121E+04    0.17051E-03   -0.42126E-04  1302   0.241E-02    0.624E-02
RMM:   5    -0.116815417565E+04    0.35565E-04   -0.26646E-04  1116   0.197E-02
   6 F= -.11754821E+04 E0= -.11754821E+04  d E =-.450795E-03  mag=    -0.9999
       N       E                     dE             d eps       ncg     rms          rms(c)
DAV:   1    -0.116815445449E+04   -0.24327E-03   -0.28916E-02  1728   0.255E-01    0.527E-02
RMM:   2    -0.116815446964E+04   -0.15158E-04   -0.54570E-04  1266   0.331E-02
   7 F= -.11754824E+04 E0= -.11754824E+04  d E =-.690984E-03  mag=    -0.9999
