       N       E                     dE             d eps       ncg     rms          rms(c)
DAV:   1     0.490623319075E+04    0.49062E+04   -0.17477E+05  1824   0.943E+02
DAV:   2    -0.460338851061E+02   -0.49523E+04   -0.45244E+04  2432   0.214E+02
DAV:   3    -0.119800472120E+04   -0.11520E+04   -0.11460E+04  1984   0.113E+02
DAV:   4    -0.124642877998E+04   -0.48424E+02   -0.48158E+02  1952   0.306E+01
DAV:   5    -0.124763766904E+04   -0.12089E+01   -0.12060E+01  2336   0.444E+00    0.727E+01
RMM:   6    -0.122791155625E+04    0.19726E+02   -0.17361E+01  1584   0.488E+00    0.505E+01
RMM:   7    -0.120905085114E+04    0.18861E+02   -0.19281E+01  1538   0.536E+00    0.380E+01
RMM:   8    -0.118164795361E+04    0.27403E+02   -0.42662E+01  1565   0.831E+00    0.235E+01
RMM:   9    -0.117728895682E+04    0.43590E+01   -0.22097E+01  1536   0.627E+00    0.136E+01
RMM:  10    -0.117849340920E+04   -0.12045E+01   -0.71288E+00  1543   0.382E+00    0.837E+00
RMM:  11    -0.117795692278E+04    0.53649E+00   -0.13545E+00  1544   0.178E+00    0.446E+00
RMM:  12    -0.117767342039E+04    0.28350E+00   -0.76330E-01  1545   0.116E+00    0.156E+00
RMM:  13    -0.117761860779E+04    0.54813E-01   -0.21125E-01  1542   0.644E-01    0.764E-01
RMM:  14    -0.117761883643E+04   -0.22864E-03   -0.30829E-02  1702   0.276E-01    0.542E-01
RMM:  15    -0.117761681574E+04    0.20207E-02   -0.17775E-02  1624   0.174E-01    0.330E-01
RMM:  16    -0.117761756993E+04   -0.75419E-03   -0.63080E-03  1611   0.107E-01    0.267E-01
RMM:  17    -0.117761770524E+04   -0.13531E-03   -0.13842E-03  1782   0.516E-02    0.245E-01
RMM:  18    -0.117761760820E+04    0.97042E-04   -0.59700E-04  1569   0.303E-02    0.180E-01
RMM:  19    -0.117761776377E+04   -0.15558E-03   -0.39506E-04  1553   0.269E-02    0.875E-02
RMM:  20    -0.117761772969E+04    0.34080E-04   -0.13939E-04  1612   0.156E-02    0.625E-02
RMM:  21    -0.117761774258E+04   -0.12882E-04   -0.54569E-05  1739   0.865E-03    0.402E-02
RMM:  22    -0.117761774816E+04   -0.55843E-05   -0.12982E-05  1501   0.385E-03    0.339E-02
RMM:  23    -0.117761775346E+04   -0.53036E-05   -0.21988E-05  1555   0.544E-03    0.814E-03
RMM:  24    -0.117761775211E+04    0.13528E-05   -0.49932E-06  1296   0.306E-03    0.873E-03
RMM:  25    -0.117761775095E+04    0.11627E-05   -0.17497E-06  1057   0.162E-03    0.759E-03
RMM:  26    -0.117761775064E+04    0.30779E-06   -0.97947E-07  1028   0.126E-03
   1 F= -.11847054E+04 E0= -.11847054E+04  d E =-.118471E+04  mag=     2.0002
       N       E                     dE             d eps       ncg     rms          rms(c)
DAV:   1    -0.117761548958E+04    0.22614E-02   -0.37379E-01  1760   0.114E+00    0.169E-01
RMM:   2    -0.117761666384E+04   -0.11743E-02   -0.13772E-02  1556   0.176E-01    0.157E-01
RMM:   3    -0.117761687612E+04   -0.21228E-03   -0.30827E-03  1730   0.733E-02    0.132E-01
RMM:   4    -0.117761679288E+04    0.83246E-04   -0.46495E-04  1907   0.299E-02    0.119E-01
RMM:   5    -0.117761662686E+04    0.16602E-03   -0.39810E-04  1556   0.256E-02    0.643E-02
RMM:   6    -0.117761662690E+04   -0.43325E-07   -0.30420E-04  1557   0.220E-02    0.425E-02
RMM:   7    -0.117761661681E+04    0.10093E-04   -0.37765E-05  1564   0.944E-03    0.280E-02
RMM:   8    -0.117761662357E+04   -0.67549E-05   -0.32959E-05  1545   0.741E-03    0.156E-02
RMM:   9    -0.117761662104E+04    0.25294E-05   -0.67805E-06  1510   0.394E-03    0.122E-02
RMM:  10    -0.117761662091E+04    0.12360E-06   -0.67911E-06  1490   0.326E-03
   2 F= -.11847049E+04 E0= -.11847049E+04  d E =0.460962E-03  mag=     2.0000
       N       E                     dE             d eps       ncg     rms          rms(c)
DAV:   1    -0.117761784094E+04   -0.12199E-02   -0.12116E-01  1824   0.643E-01    0.963E-02
RMM:   2    -0.117761814036E+04   -0.29941E-03   -0.37406E-03  1541   0.967E-02    0.874E-02
RMM:   3    -0.117761818215E+04   -0.41794E-04   -0.77368E-04  1610   0.384E-02    0.733E-02
RMM:   4    -0.117761815112E+04    0.31029E-04   -0.11709E-04  1770   0.161E-02    0.654E-02
RMM:   5    -0.117761809605E+04    0.55069E-04   -0.15221E-04  1551   0.160E-02    0.318E-02
RMM:   6    -0.117761809606E+04   -0.40673E-08   -0.78169E-05  1539   0.116E-02    0.225E-02
RMM:   7    -0.117761809334E+04    0.27124E-05   -0.87761E-06  1535   0.489E-03    0.150E-02
RMM:   8    -0.117761809424E+04   -0.89929E-06   -0.10662E-05  1516   0.422E-03    0.816E-03
RMM:   9    -0.117761809355E+04    0.69311E-06   -0.21624E-06  1044   0.218E-03
   3 F= -.11847060E+04 E0= -.11847060E+04  d E =-.631465E-03  mag=     2.0000
       N       E                     dE             d eps       ncg     rms          rms(c)
DAV:   1    -0.117761734865E+04    0.74559E-03   -0.24409E-01  2016   0.948E-01    0.139E-01
RMM:   2    -0.117761816834E+04   -0.81969E-03   -0.89889E-03  1551   0.130E-01    0.107E-01
RMM:   3    -0.117761832788E+04   -0.15955E-03   -0.20173E-03  1591   0.504E-02    0.818E-02
RMM:   4    -0.117761831095E+04    0.16936E-04   -0.20082E-04  1743   0.202E-02    0.705E-02
RMM:   5    -0.117761827398E+04    0.36968E-04   -0.11178E-04  1542   0.141E-02    0.425E-02
RMM:   6    -0.117761827449E+04   -0.51242E-06   -0.11959E-04  1540   0.141E-02    0.203E-02
RMM:   7    -0.117761827756E+04   -0.30681E-05   -0.14703E-05  1548   0.627E-03    0.113E-02
RMM:   8    -0.117761827872E+04   -0.11655E-05   -0.62026E-06  1525   0.338E-03    0.772E-03
RMM:   9    -0.117761827815E+04    0.57836E-06   -0.25464E-06  1077   0.215E-03
   4 F= -.11847065E+04 E0= -.11847065E+04  d E =-.524013E-03  mag=     2.0000
       N       E                     dE             d eps       ncg     rms          rms(c)
DAV:   1    -0.117761836334E+04   -0.84617E-04   -0.12875E-02  1952   0.218E-01    0.295E-02
RMM:   2    -0.117761840370E+04   -0.40363E-04   -0.45200E-04  1551   0.296E-02    0.239E-02
RMM:   3    -0.117761841016E+04   -0.64513E-05   -0.84142E-05  1588   0.114E-02    0.193E-02
RMM:   4    -0.117761840955E+04    0.60182E-06   -0.11999E-05  1490   0.477E-03    0.159E-02
RMM:   5    -0.117761840729E+04    0.22638E-05   -0.69989E-06  1458   0.349E-03    0.906E-03
RMM:   6    -0.117761840709E+04    0.19794E-06   -0.32701E-06  1152   0.244E-03
   5 F= -.11847066E+04 E0= -.11847066E+04  d E =-.574509E-03  mag=     2.0000
       N       E                     dE             d eps       ncg     rms          rms(c)
DAV:   1    -0.117761846698E+04   -0.59687E-04   -0.16321E-01  1632   0.615E-01    0.861E-02
RMM:   2    -0.117761867040E+04   -0.20343E-03   -0.27067E-03  1540   0.794E-02    0.900E-02
RMM:   3    -0.117761869805E+04   -0.27644E-04   -0.44743E-04  1602   0.320E-02    0.831E-02
RMM:   4    -0.117761868033E+04    0.17714E-04   -0.86846E-05  1787   0.137E-02    0.788E-02
RMM:   5    -0.117761864639E+04    0.33942E-04   -0.12853E-04  1546   0.140E-02    0.522E-02
RMM:   6    -0.117761866694E+04   -0.20548E-04   -0.11938E-04  1552   0.132E-02    0.419E-02
RMM:   7    -0.117761866105E+04    0.58888E-05   -0.11606E-05  1525   0.538E-03    0.301E-02
RMM:   8    -0.117761866221E+04   -0.11612E-05   -0.66110E-06  1506   0.332E-03    0.213E-02
RMM:   9    -0.117761866022E+04    0.19880E-05   -0.51039E-06  1376   0.286E-03    0.140E-02
RMM:  10    -0.117761865950E+04    0.72205E-06   -0.55232E-06  1370   0.282E-03
   6 F= -.11847071E+04 E0= -.11847071E+04  d E =-.505439E-03  mag=     2.0000
       N       E                     dE             d eps       ncg     rms          rms(c)
DAV:   1    -0.117761863917E+04    0.21051E-04   -0.14094E-03  1696   0.572E-02    0.109E-02
RMM:   2    -0.117761864112E+04   -0.19507E-05   -0.24321E-05  1539   0.749E-03    0.112E-02
RMM:   3    -0.117761864138E+04   -0.25953E-06   -0.40086E-06  1164   0.302E-03
   7 F= -.11847071E+04 E0= -.11847071E+04  d E =-.510708E-03  mag=     2.0000
       N       E                     dE             d eps       ncg     rms          rms(c)
DAV:   1    -0.117761881398E+04   -0.17286E-03   -0.13478E-01  1664   0.557E-01    0.755E-02
RMM:   2    -0.117761899325E+04   -0.17927E-03   -0.22474E-03  1553   0.714E-02    0.700E-02
RMM:   3    -0.117761901176E+04   -0.18507E-04   -0.37126E-04  1585   0.288E-02    0.619E-02
RMM:   4    -0.117761899985E+04    0.11916E-04   -0.82025E-05  1686   0.134E-02    0.442E-02
RMM:   5    -0.117761900591E+04   -0.60618E-05   -0.10201E-04  1543   0.127E-02    0.186E-02
RMM:   6    -0.117761901045E+04   -0.45401E-05   -0.16712E-05  1642   0.610E-03    0.139E-02
RMM:   7    -0.117761900998E+04    0.47050E-06   -0.38637E-06  1302   0.280E-03
   8 F= -.11847076E+04 E0= -.11847076E+04  d E =-.532116E-03  mag=     2.0000
       N       E                     dE             d eps       ncg     rms          rms(c)
DAV:   1    -0.117761897303E+04    0.37418E-04   -0.29186E-02  1664   0.259E-01    0.332E-02
RMM:   2    -0.117761901407E+04   -0.41037E-04   -0.49541E-04  1553   0.337E-02    0.302E-02
RMM:   3    -0.117761901953E+04   -0.54636E-05   -0.81457E-05  1589   0.136E-02    0.267E-02
RMM:   4    -0.117761902013E+04   -0.59768E-06   -0.17920E-05  1674   0.620E-03    0.192E-02
RMM:   5    -0.117761902300E+04   -0.28720E-05   -0.16431E-05  1501   0.523E-03    0.844E-03
RMM:   6    -0.117761902411E+04   -0.11103E-05   -0.29560E-06  1122   0.260E-03    0.604E-03
RMM:   7    -0.117761902411E+04    0.39799E-08   -0.82855E-07  1014   0.129E-03
   9 F= -.11847077E+04 E0= -.11847077E+04  d E =-.622520E-03  mag=     2.0000
       N       E                     dE             d eps       ncg     rms          rms(c)
DAV:   1    -0.117761920529E+04   -0.18118E-03   -0.88232E-02  1728   0.503E-01    0.651E-02
RMM:   2    -0.117761940130E+04   -0.19602E-03   -0.22349E-03  1565   0.662E-02    0.521E-02
RMM:   3    -0.117761943255E+04   -0.31252E-04   -0.39920E-04  1589   0.258E-02    0.439E-02
RMM:   4    -0.117761943345E+04   -0.90068E-06   -0.59353E-05  1717   0.110E-02    0.327E-02
RMM:   5    -0.117761943264E+04    0.81313E-06   -0.31884E-05  1544   0.764E-03    0.193E-02
RMM:   6    -0.117761943747E+04   -0.48287E-05   -0.11822E-05  1571   0.480E-03    0.114E-02
RMM:   7    -0.117761943968E+04   -0.22065E-05   -0.24525E-06  1084   0.243E-03    0.553E-03
RMM:   8    -0.117761943967E+04    0.47366E-08   -0.89323E-07  1016   0.140E-03
  10 F= -.11847082E+04 E0= -.11847082E+04  d E =-.489588E-03  mag=     2.0000
       N       E                     dE             d eps       ncg     rms          rms(c)
DAV:   1    -0.117761917724E+04    0.26244E-03   -0.15695E-01  1728   0.670E-01    0.869E-02
RMM:   2    -0.117761952848E+04   -0.35124E-03   -0.39776E-03  1563   0.883E-02    0.695E-02
RMM:   3    -0.117761958274E+04   -0.54259E-04   -0.70889E-04  1587   0.344E-02    0.586E-02
RMM:   4    -0.117761958266E+04    0.79803E-07   -0.10720E-04  1718   0.147E-02    0.435E-02
RMM:   5    -0.117761958049E+04    0.21721E-05   -0.57197E-05  1545   0.102E-02    0.256E-02
RMM:   6    -0.117761958872E+04   -0.82342E-05   -0.21801E-05  1586   0.648E-03    0.151E-02
RMM:   7    -0.117761959226E+04   -0.35417E-05   -0.42614E-06  1198   0.318E-03    0.742E-03
RMM:   8    -0.117761959223E+04    0.31723E-07   -0.16087E-06  1037   0.182E-03
  11 F= -.11847085E+04 E0= -.11847085E+04  d E =-.741971E-03  mag=     2.0000
       N       E                     dE             d eps       ncg     rms          rms(c)
DAV:   1    -0.117761975234E+04   -0.16007E-03   -0.65746E-02  1664   0.406E-01    0.536E-02
RMM:   2    -0.117761987282E+04   -0.12049E-03   -0.14202E-03  1571   0.531E-02    0.434E-02
RMM:   3    -0.117761988939E+04   -0.16570E-04   -0.24442E-04  1594   0.210E-02    0.375E-02
RMM:   4    -0.117761988917E+04    0.21975E-06   -0.39755E-05  1698   0.909E-03    0.285E-02
RMM:   5    -0.117761988849E+04    0.68102E-06   -0.28316E-05  1533   0.702E-03    0.150E-02
RMM:   6    -0.117761989189E+04   -0.33971E-05   -0.86339E-06  1535   0.411E-03    0.999E-03
RMM:   7    -0.117761989364E+04   -0.17500E-05   -0.17658E-06  1053   0.203E-03    0.478E-03
RMM:   8    -0.117761989378E+04   -0.14561E-06   -0.62841E-07  1015   0.119E-03
  12 F= -.11847088E+04 E0= -.11847088E+04  d E =-.358417E-03  mag=     2.0000
       N       E                     dE             d eps       ncg     rms          rms(c)
DAV:   1    -0.117761987258E+04    0.21053E-04   -0.89506E-02  1664   0.474E-01    0.624E-02
RMM:   2    -0.117762003690E+04   -0.16431E-03   -0.19312E-03  1571   0.619E-02    0.506E-02
RMM:   3    -0.117762005932E+04   -0.22424E-04   -0.33242E-04  1589   0.245E-02    0.436E-02
RMM:   4    -0.117762005837E+04    0.95221E-06   -0.53524E-05  1707   0.106E-02    0.332E-02
RMM:   5    -0.117762005700E+04    0.13708E-05   -0.39505E-05  1539   0.828E-03    0.175E-02
RMM:   6    -0.117762006155E+04   -0.45542E-05   -0.11851E-05  1579   0.481E-03    0.116E-02
RMM:   7    -0.117762006380E+04   -0.22420E-05   -0.23390E-06  1089   0.236E-03    0.562E-03
RMM:   8    -0.117762006401E+04   -0.21588E-06   -0.88540E-07  1020   0.138E-03
  13 F= -.11847091E+04 E0= -.11847091E+04  d E =-.595730E-03  mag=     2.0000
       N       E                     dE             d eps       ncg     rms          rms(c)
DAV:   1    -0.117761903999E+04    0.10238E-02   -0.35764E-01  1600   0.947E-01    0.125E-01
RMM:   2    -0.117761970527E+04   -0.66528E-03   -0.77138E-03  1571   0.124E-01    0.101E-01
RMM:   3    -0.117761979420E+04   -0.88927E-04   -0.13302E-03  1592   0.488E-02    0.871E-02
RMM:   4    -0.117761978607E+04    0.81321E-05   -0.21010E-04  1714   0.211E-02    0.662E-02
RMM:   5    -0.117761977683E+04    0.92363E-05   -0.15544E-04  1542   0.164E-02    0.349E-02
RMM:   6    -0.117761979348E+04   -0.16646E-04   -0.46511E-05  1591   0.952E-03    0.234E-02
RMM:   7    -0.117761980197E+04   -0.84966E-05   -0.93654E-06  1557   0.473E-03    0.112E-02
RMM:   8    -0.117761980297E+04   -0.99646E-06   -0.40892E-06  1272   0.281E-03
  14 F= -.11847089E+04 E0= -.11847089E+04  d E =-.471123E-03  mag=     2.0000
       N       E                     dE             d eps       ncg     rms          rms(c)
DAV:   1    -0.117761972791E+04    0.74066E-04   -0.16339E-01  1632   0.641E-01    0.847E-02
RMM:   2    -0.117762002408E+04   -0.29617E-03   -0.34792E-03  1571   0.830E-02    0.687E-02
RMM:   3    -0.117762006244E+04   -0.38359E-04   -0.59903E-04  1591   0.328E-02    0.592E-02
RMM:   4    -0.117762005666E+04    0.57710E-05   -0.95374E-05  1706   0.143E-02    0.446E-02
RMM:   5    -0.117762005086E+04    0.58017E-05   -0.74214E-05  1542   0.113E-02    0.233E-02
RMM:   6    -0.117762005872E+04   -0.78609E-05   -0.21308E-05  1576   0.645E-03    0.155E-02
RMM:   7    -0.117762006293E+04   -0.42103E-05   -0.46598E-06  1233   0.327E-03    0.755E-03
RMM:   8    -0.117762006341E+04   -0.47541E-06   -0.16649E-06  1051   0.185E-03
  15 F= -.11847091E+04 E0= -.11847091E+04  d E =-.638743E-03  mag=     2.0000
       N       E                     dE             d eps       ncg     rms          rms(c)
DAV:   1    -0.117762035090E+04   -0.28797E-03   -0.78001E-02  1600   0.414E-01    0.531E-02
RMM:   2    -0.117762045323E+04   -0.10233E-03   -0.12531E-03  1539   0.520E-02    0.463E-02
RMM:   3    -0.117762046111E+04   -0.78766E-05   -0.19226E-04  1585   0.210E-02    0.400E-02
RMM:   4    -0.117762045353E+04    0.75738E-05   -0.58878E-05  1589   0.113E-02    0.224E-02
RMM:   5    -0.117762045860E+04   -0.50641E-05   -0.36564E-05  1542   0.809E-03    0.113E-02
RMM:   6    -0.117762045879E+04   -0.19131E-06   -0.56395E-06  1413   0.381E-03
  16 F= -.11847095E+04 E0= -.11847095E+04  d E =-.428473E-03  mag=     2.0000
       N       E                     dE             d eps       ncg     rms          rms(c)
DAV:   1    -0.117762040368E+04    0.54919E-04   -0.19032E-01  1536   0.648E-01    0.837E-02
RMM:   2    -0.117762066096E+04   -0.25728E-03   -0.31002E-03  1539   0.818E-02    0.730E-02
RMM:   3    -0.117762068809E+04   -0.27132E-04   -0.48043E-04  1589   0.331E-02    0.633E-02
RMM:   4    -0.117762068021E+04    0.78823E-05   -0.13192E-04  1606   0.171E-02    0.364E-02
RMM:   5    -0.117762069558E+04   -0.15370E-04   -0.84993E-05  1551   0.123E-02    0.179E-02
RMM:   6    -0.117762069611E+04   -0.53018E-06   -0.13521E-05  1566   0.579E-03    0.924E-03
RMM:   7    -0.117762069692E+04   -0.81223E-06   -0.47923E-06  1276   0.293E-03
  17 F= -.11847098E+04 E0= -.11847098E+04  d E =-.719066E-03  mag=     2.0000
       N       E                     dE             d eps       ncg     rms          rms(c)
DAV:   1    -0.117762092880E+04   -0.23270E-03   -0.93310E-02  1536   0.472E-01    0.603E-02
RMM:   2    -0.117762107452E+04   -0.14572E-03   -0.16973E-03  1544   0.606E-02    0.515E-02
RMM:   3    -0.117762109545E+04   -0.20927E-04   -0.27865E-04  1597   0.244E-02    0.443E-02
RMM:   4    -0.117762109745E+04   -0.20037E-05   -0.60837E-05  1635   0.117E-02    0.266E-02
RMM:   5    -0.117762110547E+04   -0.80166E-05   -0.38160E-05  1549   0.841E-03    0.133E-02
RMM:   6    -0.117762110735E+04   -0.18805E-05   -0.67766E-06  1447   0.392E-03    0.892E-03
RMM:   7    -0.117762110759E+04   -0.23937E-06   -0.21551E-06  1053   0.206E-03
  18 F= -.11847103E+04 E0= -.11847103E+04  d E =-.463490E-03  mag=     2.0000
       N       E                     dE             d eps       ncg     rms          rms(c)
DAV:   1    -0.117762112601E+04   -0.18660E-04   -0.61593E-02  1536   0.384E-01    0.484E-02
RMM:   2    -0.117762122295E+04   -0.96934E-04   -0.11226E-03  1544   0.493E-02    0.412E-02
RMM:   3    -0.117762123720E+04   -0.14258E-04   -0.18453E-04  1598   0.198E-02    0.355E-02
RMM:   4    -0.117762123908E+04   -0.18710E-05   -0.38780E-05  1623   0.938E-03    0.217E-02
RMM:   5    -0.117762124442E+04   -0.53416E-05   -0.24859E-05  1539   0.679E-03    0.108E-02
RMM:   6    -0.117762124568E+04   -0.12590E-05   -0.43374E-06  1203   0.318E-03    0.732E-03
RMM:   7    -0.117762124589E+04   -0.21412E-06   -0.13528E-06  1027   0.167E-03
  19 F= -.11847105E+04 E0= -.11847105E+04  d E =-.645307E-03  mag=     2.0000
       N       E                     dE             d eps       ncg     rms          rms(c)
DAV:   1    -0.117762122376E+04    0.21913E-04   -0.13451E-02  1600   0.179E-01    0.226E-02
RMM:   2    -0.117762124519E+04   -0.21431E-04   -0.24705E-04  1544   0.232E-02    0.192E-02
RMM:   3    -0.117762124862E+04   -0.34269E-05   -0.40992E-05  1605   0.933E-03    0.166E-02
RMM:   4    -0.117762124948E+04   -0.86429E-06   -0.80382E-06  1542   0.430E-03
  20 F= -.11847105E+04 E0= -.11847105E+04  d E =-.669414E-03  mag=     2.0000
       N       E                     dE             d eps       ncg     rms          rms(c)
DAV:   1    -0.117762146037E+04   -0.21175E-03   -0.11030E-01  1536   0.507E-01    0.715E-02
RMM:   2    -0.117762162650E+04   -0.16613E-03   -0.19835E-03  1552   0.653E-02    0.616E-02
RMM:   3    -0.117762164975E+04   -0.23249E-04   -0.32624E-04  1591   0.261E-02    0.513E-02
RMM:   4    -0.117762165416E+04   -0.44105E-05   -0.86166E-05  1607   0.137E-02    0.266E-02
RMM:   5    -0.117762166574E+04   -0.11578E-04   -0.41461E-05  1551   0.879E-03    0.137E-02
RMM:   6    -0.117762166684E+04   -0.11010E-05   -0.69229E-06  1478   0.422E-03    0.711E-03
RMM:   7    -0.117762166723E+04   -0.39124E-06   -0.26836E-06  1142   0.224E-03
  21 F= -.11847110E+04 E0= -.11847110E+04  d E =-.470688E-03  mag=     2.0000
       N       E                     dE             d eps       ncg     rms          rms(c)
DAV:   1    -0.117762167621E+04   -0.93629E-05   -0.69227E-02  1536   0.402E-01    0.550E-02
RMM:   2    -0.117762178291E+04   -0.10671E-03   -0.12540E-03  1552   0.521E-02    0.473E-02
RMM:   3    -0.117762179818E+04   -0.15270E-04   -0.20613E-04  1593   0.209E-02    0.396E-02
RMM:   4    -0.117762180064E+04   -0.24590E-05   -0.51075E-05  1608   0.106E-02    0.214E-02
RMM:   5    -0.117762180737E+04   -0.67295E-05   -0.26063E-05  1528   0.695E-03    0.112E-02
RMM:   6    -0.117762180859E+04   -0.12170E-05   -0.43663E-06  1237   0.334E-03    0.591E-03
RMM:   7    -0.117762180888E+04   -0.28784E-06   -0.14830E-06  1045   0.174E-03
  22 F= -.11847111E+04 E0= -.11847111E+04  d E =-.655498E-03  mag=     2.0000
