       N       E                     dE             d eps       ncg     rms          rms(c)
DAV:   1     0.490202712468E+04    0.49020E+04   -0.17101E+05  1836   0.906E+02
DAV:   2    -0.461168040760E+02   -0.49481E+04   -0.44969E+04  2520   0.207E+02
DAV:   3    -0.118395512931E+04   -0.11378E+04   -0.11331E+04  2196   0.109E+02
DAV:   4    -0.123036775736E+04   -0.46413E+02   -0.46160E+02  2016   0.287E+01
DAV:   5    -0.123175673740E+04   -0.13890E+01   -0.13855E+01  2484   0.435E+00    0.677E+01
RMM:   6    -0.121872624258E+04    0.13030E+02   -0.73538E+00  1586   0.307E+00    0.597E+01
RMM:   7    -0.119578359334E+04    0.22943E+02   -0.19803E+01  1587   0.504E+00    0.464E+01
RMM:   8    -0.117009597908E+04    0.25688E+02   -0.48076E+01  1585   0.772E+00    0.298E+01
RMM:   9    -0.116953618610E+04    0.55979E+00   -0.36785E+01  1585   0.675E+00    0.121E+01
RMM:  10    -0.116970501673E+04   -0.16883E+00   -0.15806E+00  1637   0.157E+00    0.889E+00
RMM:  11    -0.116810188349E+04    0.16031E+01   -0.56210E+00  1585   0.251E+00    0.251E+00
RMM:  12    -0.116807394958E+04    0.27934E-01   -0.14605E-01  1591   0.435E-01    0.211E+00
RMM:  13    -0.116802705562E+04    0.46894E-01   -0.76710E-02  1588   0.302E-01    0.113E+00
RMM:  14    -0.116801159407E+04    0.15462E-01   -0.89623E-02  1585   0.332E-01    0.412E-01
RMM:  15    -0.116801061350E+04    0.98057E-03   -0.45225E-03  1664   0.802E-02    0.253E-01
RMM:  16    -0.116801058921E+04    0.24287E-04   -0.35018E-04  1231   0.212E-02
   1 F= -.11751006E+04 E0= -.11750920E+04  d E =-.117510E+04  mag=    -0.6970
       N       E                     dE             d eps       ncg     rms          rms(c)
DAV:   1    -0.116800950281E+04    0.11107E-02   -0.49920E-01  1620   0.113E+00    0.536E-01
RMM:   2    -0.116801134883E+04   -0.18460E-02   -0.21171E-02  1648   0.169E-01    0.506E-01
RMM:   3    -0.116801111556E+04    0.23327E-03   -0.11042E-03  1549   0.385E-02    0.471E-01
RMM:   4    -0.116801077584E+04    0.33972E-03   -0.67046E-03  1591   0.882E-02    0.110E-01
RMM:   5    -0.116801087562E+04   -0.99781E-04   -0.13035E-04  1104   0.173E-02
   2 F= -.11751009E+04 E0= -.11750945E+04  d E =-.297863E-03  mag=    -0.7972
       N       E                     dE             d eps       ncg     rms          rms(c)
DAV:   1    -0.116801193687E+04   -0.11610E-02   -0.87700E-02  1764   0.476E-01    0.214E-01
RMM:   2    -0.116801215524E+04   -0.21837E-03   -0.30470E-03  1596   0.640E-02    0.203E-01
RMM:   3    -0.116801207654E+04    0.78698E-04   -0.12953E-04  1054   0.147E-02
   3 F= -.11751021E+04 E0= -.11750958E+04  d E =-.149305E-02  mag=    -0.8002
       N       E                     dE             d eps       ncg     rms          rms(c)
DAV:   1    -0.116801084542E+04    0.13098E-02   -0.26669E-01  1728   0.843E-01    0.155E-01
RMM:   2    -0.116801141708E+04   -0.57166E-03   -0.70257E-03  1584   0.123E-01    0.154E-01
RMM:   3    -0.116801136673E+04    0.50345E-04   -0.33813E-04  1205   0.251E-02
   4 F= -.11751013E+04 E0= -.11750951E+04  d E =0.791478E-03  mag=    -0.8054
       N       E                     dE             d eps       ncg     rms          rms(c)
DAV:   1    -0.116801245465E+04   -0.10376E-02   -0.11713E-01  1728   0.558E-01    0.692E-02
RMM:   2    -0.116801280646E+04   -0.35181E-03   -0.40688E-03  1588   0.929E-02    0.762E-02
RMM:   3    -0.116801279139E+04    0.15077E-04   -0.15376E-04  1066   0.179E-02
   5 F= -.11751027E+04 E0= -.11750966E+04  d E =-.682738E-03  mag=    -0.8050
