       N       E                     dE             d eps       ncg     rms          rms(c)
DAV:   1     0.475195524853E+04    0.47520E+04   -0.17331E+05  1872   0.911E+02
DAV:   2    -0.867292974687E+02   -0.48387E+04   -0.44115E+04  2520   0.209E+02
DAV:   3    -0.119615844231E+04   -0.11094E+04   -0.11033E+04  2160   0.109E+02
DAV:   4    -0.124035888510E+04   -0.44200E+02   -0.43960E+02  2052   0.292E+01
DAV:   5    -0.124158724577E+04   -0.12284E+01   -0.12246E+01  2304   0.453E+00    0.714E+01
RMM:   6    -0.122109121840E+04    0.20496E+02   -0.25848E+01  1592   0.558E+00    0.599E+01
RMM:   7    -0.120594752788E+04    0.15144E+02   -0.89172E+00  1584   0.363E+00    0.442E+01
RMM:   8    -0.118235443169E+04    0.23593E+02   -0.26109E+01  1586   0.606E+00    0.300E+01
RMM:   9    -0.117045559675E+04    0.11899E+02   -0.23175E+01  1584   0.582E+00    0.206E+01
RMM:  10    -0.117173787585E+04   -0.12823E+01   -0.19440E+01  1584   0.530E+00    0.866E+00
RMM:  11    -0.117134887215E+04    0.38900E+00   -0.91938E-01  1619   0.196E+00    0.649E+00
RMM:  12    -0.117081890375E+04    0.52997E+00   -0.56571E-01  1584   0.843E-01    0.480E+00
RMM:  13    -0.117058079475E+04    0.23811E+00   -0.98378E-01  1584   0.120E+00    0.152E+00
RMM:  14    -0.117057334106E+04    0.74537E-02   -0.39554E-02  1640   0.356E-01    0.117E+00
RMM:  15    -0.117057616409E+04   -0.28230E-02   -0.20371E-02  1628   0.145E-01    0.751E-01
RMM:  16    -0.117057703538E+04   -0.87128E-03   -0.11692E-02  1584   0.134E-01    0.446E-01
RMM:  17    -0.117057438296E+04    0.26524E-02   -0.61566E-03  1584   0.104E-01    0.278E-01
RMM:  18    -0.117057446528E+04   -0.82321E-04   -0.25144E-03  1589   0.655E-02    0.158E-01
RMM:  19    -0.117057436318E+04    0.10210E-03   -0.26654E-04  1159   0.299E-02    0.820E-02
RMM:  20    -0.117057435264E+04    0.10546E-04   -0.22218E-04  1107   0.197E-02
   1 F= -.11778691E+04 E0= -.11778691E+04  d E =-.117787E+04  mag=    -0.0011
       N       E                     dE             d eps       ncg     rms          rms(c)
DAV:   1    -0.117057241208E+04    0.19511E-02   -0.52044E-01  1656   0.116E+00    0.235E-01
RMM:   2    -0.117057357365E+04   -0.11616E-02   -0.15717E-02  1599   0.190E-01    0.245E-01
RMM:   3    -0.117057359657E+04   -0.22924E-04   -0.12676E-03  1608   0.615E-02    0.304E-01
RMM:   4    -0.117057368754E+04   -0.90970E-04   -0.17017E-04  1102   0.177E-02
   2 F= -.11778690E+04 E0= -.11778690E+04  d E =0.172810E-03  mag=    -0.0003
       N       E                     dE             d eps       ncg     rms          rms(c)
DAV:   1    -0.117057442341E+04   -0.82684E-03   -0.14435E-01  1800   0.608E-01    0.944E-02
RMM:   2    -0.117057488916E+04   -0.46574E-03   -0.46543E-03  1584   0.107E-01    0.118E-01
RMM:   3    -0.117057491512E+04   -0.25966E-04   -0.24843E-04  1116   0.310E-02
   3 F= -.11778700E+04 E0= -.11778700E+04  d E =-.810162E-03  mag=    -0.0002
