       N       E                     dE             d eps       ncg     rms          rms(c)
DAV:   1     0.487525110967E+04    0.48753E+04   -0.16926E+05  1836   0.903E+02
DAV:   2    -0.658390088507E+02   -0.49411E+04   -0.45000E+04  2556   0.206E+02
DAV:   3    -0.118432864426E+04   -0.11185E+04   -0.11138E+04  2160   0.109E+02
DAV:   4    -0.122809604721E+04   -0.43767E+02   -0.43553E+02  2052   0.283E+01
DAV:   5    -0.122922313555E+04   -0.11271E+01   -0.11248E+01  2304   0.418E+00    0.636E+01
RMM:   6    -0.121380775251E+04    0.15415E+02   -0.14111E+01  1584   0.393E+00    0.502E+01
RMM:   7    -0.119082457492E+04    0.22983E+02   -0.19938E+01  1584   0.517E+00    0.359E+01
RMM:   8    -0.116870483987E+04    0.22120E+02   -0.31663E+01  1584   0.644E+00    0.242E+01
RMM:   9    -0.116563660236E+04    0.30682E+01   -0.37155E+01  1584   0.689E+00    0.919E+00
RMM:  10    -0.116587676352E+04   -0.24016E+00   -0.14964E+00  1616   0.156E+00    0.672E+00
RMM:  11    -0.116498398177E+04    0.89278E+00   -0.33199E+00  1584   0.203E+00    0.222E+00
RMM:  12    -0.116492630664E+04    0.57675E-01   -0.14822E-01  1591   0.432E-01    0.105E+00
RMM:  13    -0.116491445346E+04    0.11853E-01   -0.13104E-01  1584   0.399E-01    0.481E-01
RMM:  14    -0.116490942826E+04    0.50252E-02   -0.12745E-02  1589   0.133E-01    0.209E-01
RMM:  15    -0.116490911665E+04    0.31161E-03   -0.26823E-03  1585   0.590E-02    0.126E-01
RMM:  16    -0.116490982175E+04   -0.70510E-03   -0.14488E-03  1584   0.444E-02    0.134E-01
RMM:  17    -0.116490947010E+04    0.35165E-03   -0.16093E-03  1584   0.440E-02    0.453E-02
RMM:  18    -0.116490963181E+04   -0.16171E-03   -0.21202E-04  1071   0.182E-02    0.486E-02
RMM:  19    -0.116490956866E+04    0.63148E-04   -0.14075E-04  1032   0.143E-02
   1 F= -.11720198E+04 E0= -.11720198E+04  d E =-.117202E+04  mag=     0.0008
       N       E                     dE             d eps       ncg     rms          rms(c)
DAV:   1    -0.116490651100E+04    0.31208E-02   -0.18464E+00  1764   0.201E+00    0.512E-01
RMM:   2    -0.116490969345E+04   -0.31825E-02   -0.41608E-02  1584   0.276E-01    0.512E-01
RMM:   3    -0.116490959658E+04    0.96872E-04   -0.26465E-03  1618   0.582E-02    0.496E-01
RMM:   4    -0.116490802322E+04    0.15734E-02   -0.26348E-03  1586   0.592E-02    0.273E-01
RMM:   5    -0.116490803350E+04   -0.10277E-04   -0.33337E-03  1584   0.650E-02    0.880E-02
RMM:   6    -0.116490792580E+04    0.10770E-03   -0.92771E-05  1053   0.139E-02    0.743E-02
RMM:   7    -0.116490779370E+04    0.13211E-03   -0.73285E-04  1479   0.277E-02    0.288E-02
RMM:   8    -0.116490780156E+04   -0.78641E-05   -0.41323E-05  1006   0.810E-03
   2 F= -.11720187E+04 E0= -.11720187E+04  d E =0.109690E-02  mag=    -0.0001
       N       E                     dE             d eps       ncg     rms          rms(c)
DAV:   1    -0.116491187933E+04   -0.40856E-02   -0.55490E-01  1764   0.110E+00    0.282E-01
RMM:   2    -0.116491267814E+04   -0.79880E-03   -0.11402E-02  1587   0.147E-01    0.282E-01
RMM:   3    -0.116491261868E+04    0.59458E-04   -0.62670E-04  1282   0.298E-02
   3 F= -.11720231E+04 E0= -.11720231E+04  d E =-.335847E-02  mag=     0.0000
       N       E                     dE             d eps       ncg     rms          rms(c)
DAV:   1    -0.116490979727E+04    0.28809E-02   -0.62927E-01  1692   0.127E+00    0.324E-01
RMM:   2    -0.116491055235E+04   -0.75508E-03   -0.16603E-02  1584   0.195E-01    0.310E-01
RMM:   3    -0.116490977122E+04    0.78113E-03   -0.83487E-04  1529   0.397E-02    0.275E-01
RMM:   4    -0.116490806756E+04    0.17037E-02   -0.87009E-03  1584   0.105E-01    0.842E-02
RMM:   5    -0.116490794242E+04    0.12514E-03   -0.12487E-04  1062   0.177E-02    0.652E-02
RMM:   6    -0.116490787113E+04    0.71287E-04   -0.37539E-04  1271   0.195E-02
   4 F= -.11720179E+04 E0= -.11720179E+04  d E =0.519126E-02  mag=     0.0000
       N       E                     dE             d eps       ncg     rms          rms(c)
DAV:   1    -0.116491350422E+04   -0.55618E-02   -0.37748E-01  1728   0.982E-01    0.196E-01
RMM:   2    -0.116491406991E+04   -0.56569E-03   -0.10646E-02  1584   0.157E-01    0.188E-01
RMM:   3    -0.116491376189E+04    0.30802E-03   -0.44781E-04  1250   0.300E-02    0.172E-01
RMM:   4    -0.116491274891E+04    0.10130E-02   -0.44744E-03  1584   0.751E-02    0.530E-02
RMM:   5    -0.116491271248E+04    0.36429E-04   -0.72006E-05  1042   0.137E-02
   5 F= -.11720231E+04 E0= -.11720231E+04  d E =0.152065E-04  mag=     0.0000
