       N       E                     dE             d eps       ncg     rms          rms(c)
DAV:   1     0.486627047250E+04    0.48663E+04   -0.17306E+05  1872   0.909E+02
DAV:   2    -0.723188718365E+02   -0.49386E+04   -0.45076E+04  2556   0.206E+02
DAV:   3    -0.118983600678E+04   -0.11175E+04   -0.11114E+04  2124   0.108E+02
DAV:   4    -0.123453575877E+04   -0.44700E+02   -0.44466E+02  2052   0.284E+01
DAV:   5    -0.123567995477E+04   -0.11442E+01   -0.11419E+01  2268   0.422E+00    0.662E+01
RMM:   6    -0.122053871552E+04    0.15141E+02   -0.24707E+01  1584   0.484E+00    0.519E+01
RMM:   7    -0.120487775275E+04    0.15661E+02   -0.87643E+00  1584   0.334E+00    0.419E+01
RMM:   8    -0.117712621239E+04    0.27752E+02   -0.37253E+01  1584   0.697E+00    0.266E+01
RMM:   9    -0.116844796417E+04    0.86782E+01   -0.17611E+01  1584   0.481E+00    0.182E+01
RMM:  10    -0.116938802563E+04   -0.94006E+00   -0.13478E+01  1584   0.413E+00    0.930E+00
RMM:  11    -0.116925756003E+04    0.13047E+00   -0.11816E+00  1616   0.132E+00    0.649E+00
RMM:  12    -0.116874880713E+04    0.50875E+00   -0.10482E+00  1584   0.107E+00    0.361E+00
RMM:  13    -0.116848544065E+04    0.26337E+00   -0.60576E-01  1584   0.874E-01    0.135E+00
RMM:  14    -0.116845674659E+04    0.28694E-01   -0.71247E-02  1596   0.285E-01    0.615E-01
RMM:  15    -0.116845656616E+04    0.18043E-03   -0.12844E-02  1602   0.130E-01    0.362E-01
RMM:  16    -0.116845646568E+04    0.10048E-03   -0.41466E-03  1602   0.739E-02    0.214E-01
RMM:  17    -0.116845651681E+04   -0.51128E-04   -0.12738E-03  1478   0.399E-02    0.116E-01
RMM:  18    -0.116845661598E+04   -0.99177E-04   -0.23770E-04  1135   0.200E-02
   1 F= -.11755738E+04 E0= -.11755738E+04  d E =-.117557E+04  mag=     1.0022
       N       E                     dE             d eps       ncg     rms          rms(c)
DAV:   1    -0.116845302312E+04    0.34937E-02   -0.88924E-01  1656   0.160E+00    0.358E-01
RMM:   2    -0.116845645010E+04   -0.34270E-02   -0.37575E-02  1584   0.255E-01    0.372E-01
RMM:   3    -0.116845628310E+04    0.16701E-03   -0.19391E-03  1575   0.482E-02    0.371E-01
RMM:   4    -0.116845612518E+04    0.15792E-03   -0.15369E-04  1088   0.162E-02    0.355E-01
RMM:   5    -0.116845604591E+04    0.79263E-04   -0.64512E-03  1584   0.859E-02    0.244E-01
RMM:   6    -0.116845619010E+04   -0.14419E-03   -0.88063E-04  1571   0.347E-02    0.232E-01
RMM:   7    -0.116845567412E+04    0.51598E-03   -0.52315E-04  1372   0.228E-02    0.139E-01
RMM:   8    -0.116845552189E+04    0.15223E-03   -0.44226E-04  1348   0.222E-02    0.591E-02
RMM:   9    -0.116845549057E+04    0.31322E-04   -0.21406E-04  1088   0.172E-02
   2 F= -.11755728E+04 E0= -.11755728E+04  d E =0.100193E-02  mag=     1.0000
       N       E                     dE             d eps       ncg     rms          rms(c)
DAV:   1    -0.116845717767E+04   -0.16558E-02   -0.30919E-01  1620   0.942E-01    0.210E-01
RMM:   2    -0.116845819870E+04   -0.10210E-02   -0.11836E-02  1584   0.145E-01    0.220E-01
RMM:   3    -0.116845812668E+04    0.72021E-04   -0.52061E-04  1220   0.258E-02
   3 F= -.11755753E+04 E0= -.11755753E+04  d E =-.155837E-02  mag=     1.0000
       N       E                     dE             d eps       ncg     rms          rms(c)
DAV:   1    -0.116845714463E+04    0.10541E-02   -0.36198E-01  1692   0.102E+00    0.316E-01
RMM:   2    -0.116845757272E+04   -0.42810E-03   -0.11862E-02  1584   0.164E-01    0.283E-01
RMM:   3    -0.116845642137E+04    0.11513E-02   -0.10455E-03  1603   0.420E-02    0.215E-01
RMM:   4    -0.116845552295E+04    0.89842E-03   -0.47718E-03  1584   0.776E-02    0.786E-02
RMM:   5    -0.116845543221E+04    0.90736E-04   -0.13209E-04  1063   0.164E-02
   4 F= -.11755724E+04 E0= -.11755724E+04  d E =0.296899E-02  mag=     1.0000
       N       E                     dE             d eps       ncg     rms          rms(c)
DAV:   1    -0.116845837563E+04   -0.28527E-02   -0.21227E-01  1728   0.786E-01    0.145E-01
RMM:   2    -0.116845878362E+04   -0.40798E-03   -0.66618E-03  1584   0.122E-01    0.135E-01
RMM:   3    -0.116845858157E+04    0.20205E-03   -0.28478E-04  1172   0.237E-02    0.121E-01
RMM:   4    -0.116845814356E+04    0.43801E-03   -0.20514E-03  1584   0.518E-02    0.354E-02
RMM:   5    -0.116845813163E+04    0.11931E-04   -0.33961E-05   995   0.964E-03
   5 F= -.11755753E+04 E0= -.11755753E+04  d E =0.592523E-04  mag=     1.0000
