       N       E                     dE             d eps       ncg     rms          rms(c)
DAV:   1     0.488110150657E+04    0.48811E+04   -0.17100E+05  1728   0.987E+02
DAV:   2    -0.965194717141E+00   -0.48821E+04   -0.44937E+04  2268   0.220E+02
DAV:   3    -0.117979016502E+04   -0.11788E+04   -0.11717E+04  1872   0.119E+02
DAV:   4    -0.123280531498E+04   -0.53015E+02   -0.52653E+02  1836   0.344E+01
DAV:   5    -0.123427502306E+04   -0.14697E+01   -0.14660E+01  2052   0.544E+00    0.623E+01
RMM:   6    -0.121915535916E+04    0.15120E+02   -0.92541E+00  1466   0.371E+00    0.506E+01
RMM:   7    -0.118597243627E+04    0.33183E+02   -0.48120E+01  1458   0.857E+00    0.310E+01
RMM:   8    -0.117239328612E+04    0.13579E+02   -0.17242E+01  1440   0.548E+00    0.231E+01
RMM:   9    -0.116816805141E+04    0.42252E+01   -0.41289E+01  1442   0.814E+00    0.103E+01
RMM:  10    -0.116793632830E+04    0.23172E+00   -0.18281E+00  1500   0.282E+00    0.748E+00
RMM:  11    -0.116771541375E+04    0.22091E+00   -0.73773E-01  1481   0.965E-01    0.552E+00
RMM:  12    -0.116747367422E+04    0.24174E+00   -0.12040E+00  1512   0.115E+00    0.329E+00
RMM:  13    -0.116727727062E+04    0.19640E+00   -0.44090E-01  1456   0.883E-01    0.691E-01
RMM:  14    -0.116727793252E+04   -0.66190E-03   -0.22482E-02  1486   0.313E-01    0.474E-01
RMM:  15    -0.116727891327E+04   -0.98076E-03   -0.67328E-03  1479   0.981E-02    0.406E-01
RMM:  16    -0.116727845084E+04    0.46243E-03   -0.92465E-03  1469   0.130E-01    0.278E-01
RMM:  17    -0.116727885447E+04   -0.40363E-03   -0.12118E-03  1421   0.635E-02    0.191E-01
RMM:  18    -0.116727911136E+04   -0.25689E-03   -0.50389E-04  1144   0.306E-02    0.151E-01
RMM:  19    -0.116727955121E+04   -0.43985E-03   -0.45869E-04  1127   0.313E-02    0.118E-01
RMM:  20    -0.116727988543E+04   -0.33422E-03   -0.49138E-04  1158   0.318E-02    0.909E-02
RMM:  21    -0.116728015997E+04   -0.27454E-03   -0.55195E-04  1181   0.342E-02    0.678E-02
RMM:  22    -0.116728034771E+04   -0.18774E-03   -0.75824E-04  1280   0.389E-02    0.443E-02
RMM:  23    -0.116728045339E+04   -0.10568E-03   -0.60998E-04  1188   0.358E-02    0.124E-02
RMM:  24    -0.116728064159E+04   -0.18820E-03   -0.96880E-05   908   0.205E-02    0.971E-03
RMM:  25    -0.116728067779E+04   -0.36201E-04   -0.50204E-05   880   0.139E-02
   1 F= -.11742954E+04 E0= -.11742880E+04  d E =-.117430E+04  mag=    -0.8405
       N       E                     dE             d eps       ncg     rms          rms(c)
DAV:   1    -0.116727892970E+04    0.17119E-02   -0.47727E-01  1584   0.128E+00    0.195E-01
RMM:   2    -0.116728060081E+04   -0.16711E-02   -0.20512E-02  1486   0.202E-01    0.225E-01
RMM:   3    -0.116728060690E+04   -0.60938E-05   -0.15222E-03  1308   0.600E-02    0.246E-01
RMM:   4    -0.116728061925E+04   -0.12351E-04   -0.23915E-04   962   0.219E-02
   2 F= -.11742956E+04 E0= -.11742888E+04  d E =-.199519E-03  mag=    -0.8337
       N       E                     dE             d eps       ncg     rms          rms(c)
DAV:   1    -0.116728109640E+04   -0.48950E-03   -0.93787E-02  1512   0.565E-01    0.181E-01
RMM:   2    -0.116728150097E+04   -0.40457E-03   -0.40286E-03  1471   0.920E-02    0.117E-01
RMM:   3    -0.116728147957E+04    0.21396E-04   -0.37060E-04   978   0.322E-02
   3 F= -.11742964E+04 E0= -.11742893E+04  d E =-.943666E-03  mag=    -0.8248
