       N       E                     dE             d eps       ncg     rms          rms(c)
DAV:   1     0.501010864809E+04    0.50101E+04   -0.17371E+05  1836   0.924E+02
DAV:   2    -0.363462559487E+02   -0.50465E+04   -0.46197E+04  2592   0.212E+02
DAV:   3    -0.119339913140E+04   -0.11571E+04   -0.11517E+04  2052   0.111E+02
DAV:   4    -0.124029883322E+04   -0.46900E+02   -0.46650E+02  2016   0.300E+01
DAV:   5    -0.124149428247E+04   -0.11954E+01   -0.11926E+01  2304   0.440E+00    0.656E+01
RMM:   6    -0.122662662630E+04    0.14868E+02   -0.21954E+01  1584   0.472E+00    0.528E+01
RMM:   7    -0.121150459330E+04    0.15122E+02   -0.84534E+00  1584   0.338E+00    0.418E+01
RMM:   8    -0.118762593182E+04    0.23879E+02   -0.26441E+01  1584   0.593E+00    0.283E+01
RMM:   9    -0.117637851118E+04    0.11247E+02   -0.17945E+01  1584   0.489E+00    0.205E+01
RMM:  10    -0.117558868605E+04    0.78983E+00   -0.16073E+01  1584   0.456E+00    0.109E+01
RMM:  11    -0.117622018811E+04   -0.63150E+00   -0.19905E+00  1595   0.171E+00    0.817E+00
RMM:  12    -0.117571847963E+04    0.50171E+00   -0.16528E+00  1584   0.119E+00    0.519E+00
RMM:  13    -0.117556602662E+04    0.15245E+00   -0.90211E-02  1584   0.357E-01    0.344E+00
RMM:  14    -0.117536063473E+04    0.20539E+00   -0.48973E-01  1584   0.770E-01    0.125E+00
RMM:  15    -0.117537758506E+04   -0.16950E-01   -0.10480E-01  1584   0.378E-01    0.807E-01
RMM:  16    -0.117537662772E+04    0.95733E-03   -0.11928E-02  1596   0.123E-01    0.304E-01
RMM:  17    -0.117537641878E+04    0.20894E-03   -0.37813E-03  1542   0.579E-02    0.163E-01
RMM:  18    -0.117537659154E+04   -0.17276E-03   -0.32464E-04  1136   0.231E-02    0.122E-01
RMM:  19    -0.117537658970E+04    0.18468E-05   -0.46635E-04  1101   0.225E-02
   1 F= -.11825922E+04 E0= -.11825922E+04  d E =-.118259E+04  mag=    -1.0046
       N       E                     dE             d eps       ncg     rms          rms(c)
DAV:   1    -0.117537175686E+04    0.48347E-02   -0.17742E+00  1800   0.199E+00    0.496E-01
RMM:   2    -0.117537506128E+04   -0.33044E-02   -0.44036E-02  1584   0.291E-01    0.484E-01
RMM:   3    -0.117537477221E+04    0.28907E-03   -0.27743E-03  1688   0.604E-02    0.457E-01
RMM:   4    -0.117537332453E+04    0.14477E-02   -0.35414E-03  1585   0.680E-02    0.231E-01
RMM:   5    -0.117537335536E+04   -0.30828E-04   -0.22950E-03  1584   0.545E-02    0.900E-02
RMM:   6    -0.117537328617E+04    0.69190E-04   -0.11755E-04  1046   0.146E-02
   2 F= -.11825896E+04 E0= -.11825896E+04  d E =0.260321E-02  mag=    -1.0003
       N       E                     dE             d eps       ncg     rms          rms(c)
DAV:   1    -0.117537868887E+04   -0.53335E-02   -0.58668E-01  1728   0.114E+00    0.278E-01
RMM:   2    -0.117537942763E+04   -0.73876E-03   -0.11500E-02  1585   0.155E-01    0.273E-01
RMM:   3    -0.117537928415E+04    0.14347E-03   -0.65068E-04  1282   0.306E-02    0.256E-01
RMM:   4    -0.117537871888E+04    0.56527E-03   -0.14936E-03  1584   0.448E-02    0.114E-01
RMM:   5    -0.117537873330E+04   -0.14416E-04   -0.63076E-04  1543   0.291E-02
   3 F= -.11825947E+04 E0= -.11825947E+04  d E =-.244093E-02  mag=    -1.0000
       N       E                     dE             d eps       ncg     rms          rms(c)
DAV:   1    -0.117537983820E+04   -0.11193E-02   -0.66990E-01  1728   0.122E+00    0.309E-01
RMM:   2    -0.117538032488E+04   -0.48668E-03   -0.13187E-02  1584   0.166E-01    0.263E-01
RMM:   3    -0.117537964000E+04    0.68488E-03   -0.86710E-04  1510   0.378E-02    0.211E-01
RMM:   4    -0.117537880790E+04    0.83210E-03   -0.24597E-03  1584   0.553E-02    0.873E-02
RMM:   5    -0.117537881678E+04   -0.88770E-05   -0.40202E-04  1227   0.239E-02
   4 F= -.11825949E+04 E0= -.11825949E+04  d E =-.268171E-03  mag=    -1.0000
       N       E                     dE             d eps       ncg     rms          rms(c)
DAV:   1    -0.117538002145E+04   -0.12136E-02   -0.14523E-01  1692   0.568E-01    0.140E-01
RMM:   2    -0.117538006976E+04   -0.48303E-04   -0.27222E-03  1584   0.758E-02    0.120E-01
RMM:   3    -0.117537986887E+04    0.20088E-03   -0.18778E-04  1045   0.185E-02    0.927E-02
RMM:   4    -0.117537966278E+04    0.20610E-03   -0.72872E-04  1551   0.302E-02    0.379E-02
RMM:   5    -0.117537966643E+04   -0.36557E-05   -0.65369E-05   994   0.106E-02
   5 F= -.11825957E+04 E0= -.11825957E+04  d E =-.103215E-02  mag=    -1.0000
       N       E                     dE             d eps       ncg     rms          rms(c)
DAV:   1    -0.117537973072E+04   -0.67944E-04   -0.33005E-01  1728   0.852E-01    0.144E-01
RMM:   2    -0.117538015175E+04   -0.42103E-03   -0.71151E-03  1584   0.121E-01    0.127E-01
RMM:   3    -0.117538000075E+04    0.15100E-03   -0.26926E-04  1150   0.231E-02    0.112E-01
RMM:   4    -0.117537977037E+04    0.23038E-03   -0.12900E-03  1562   0.396E-02    0.477E-02
RMM:   5    -0.117537978594E+04   -0.15579E-04   -0.43533E-05  1006   0.981E-03
   6 F= -.11825960E+04 E0= -.11825960E+04  d E =-.338065E-03  mag=    -1.0000
       N       E                     dE             d eps       ncg     rms          rms(c)
DAV:   1    -0.117538016464E+04   -0.39428E-03   -0.50047E-02  1728   0.331E-01    0.533E-02
RMM:   2    -0.117538021942E+04   -0.54775E-04   -0.10123E-03  1454   0.450E-02    0.471E-02
RMM:   3    -0.117538018777E+04    0.31646E-04   -0.42794E-05   975   0.101E-02
   7 F= -.11825964E+04 E0= -.11825964E+04  d E =-.654334E-03  mag=    -1.0000
