       N       E                     dE             d eps       ncg     rms          rms(c)
DAV:   1     0.487117664224E+04    0.48712E+04   -0.17093E+05  1872   0.907E+02
DAV:   2    -0.400524034695E+02   -0.49112E+04   -0.44699E+04  2520   0.207E+02
DAV:   3    -0.117214044208E+04   -0.11321E+04   -0.11272E+04  2124   0.109E+02
DAV:   4    -0.121803583638E+04   -0.45895E+02   -0.45678E+02  2016   0.290E+01
DAV:   5    -0.121919506675E+04   -0.11592E+01   -0.11566E+01  2340   0.423E+00    0.598E+01
RMM:   6    -0.120709483459E+04    0.12100E+02   -0.65687E+00  1584   0.298E+00    0.494E+01
RMM:   7    -0.116461279667E+04    0.42482E+02   -0.66604E+01  1584   0.935E+00    0.289E+01
RMM:   8    -0.115839335467E+04    0.62194E+01   -0.15681E+01  1584   0.458E+00    0.187E+01
RMM:   9    -0.115775810187E+04    0.63525E+00   -0.23198E+01  1584   0.545E+00    0.954E+00
RMM:  10    -0.115693788656E+04    0.82022E+00   -0.27395E+00  1590   0.178E+00    0.429E+00
RMM:  11    -0.115690150065E+04    0.36386E-01   -0.19969E-01  1588   0.503E-01    0.334E+00
RMM:  12    -0.115647285252E+04    0.42865E+00   -0.11435E+00  1584   0.101E+00    0.102E+00
RMM:  13    -0.115648012025E+04   -0.72677E-02   -0.60576E-02  1584   0.276E-01    0.645E-01
RMM:  14    -0.115646521828E+04    0.14902E-01   -0.21430E-02  1588   0.146E-01    0.416E-01
RMM:  15    -0.115645989440E+04    0.53239E-02   -0.26083E-02  1584   0.159E-01    0.223E-01
RMM:  16    -0.115645949529E+04    0.39911E-03   -0.36687E-03  1582   0.626E-02    0.139E-01
RMM:  17    -0.115645913298E+04    0.36231E-03   -0.10442E-03  1566   0.368E-02    0.901E-02
RMM:  18    -0.115645933317E+04   -0.20018E-03   -0.85515E-04  1584   0.328E-02    0.696E-02
RMM:  19    -0.115645922895E+04    0.10421E-03   -0.20446E-04  1141   0.168E-02    0.341E-02
RMM:  20    -0.115645920826E+04    0.20697E-04   -0.13322E-04  1053   0.131E-02
   1 F= -.11635289E+04 E0= -.11635289E+04  d E =-.116353E+04  mag=     0.0003
       N       E                     dE             d eps       ncg     rms          rms(c)
DAV:   1    -0.115645912361E+04    0.10535E-03   -0.19838E-01  1764   0.703E-01    0.116E-01
RMM:   2    -0.115645943299E+04   -0.30938E-03   -0.52627E-03  1586   0.100E-01    0.113E-01
RMM:   3    -0.115645932309E+04    0.10990E-03   -0.29127E-04  1172   0.232E-02    0.104E-01
RMM:   4    -0.115645897341E+04    0.34968E-03   -0.15943E-03  1584   0.443E-02    0.309E-02
RMM:   5    -0.115645897269E+04    0.71932E-06   -0.44095E-05  1013   0.996E-03
   2 F= -.11635289E+04 E0= -.11635289E+04  d E =0.386853E-05  mag=     0.0001
       N       E                     dE             d eps       ncg     rms          rms(c)
DAV:   1    -0.115645950907E+04   -0.53566E-03   -0.50997E-02  1656   0.356E-01    0.492E-02
RMM:   2    -0.115645956804E+04   -0.58969E-04   -0.99733E-04  1558   0.457E-02
   3 F= -.11635294E+04 E0= -.11635294E+04  d E =-.471875E-03  mag=     0.0000
