       N       E                     dE             d eps       ncg     rms          rms(c)
DAV:   1     0.515117458100E+04    0.51512E+04   -0.17269E+05  1872   0.920E+02
DAV:   2     0.834214585265E+02   -0.50678E+04   -0.46311E+04  2592   0.213E+02
DAV:   3    -0.118757778899E+04   -0.12710E+04   -0.12645E+04  2304   0.118E+02
DAV:   4    -0.124412027916E+04   -0.56542E+02   -0.56224E+02  2196   0.328E+01
DAV:   5    -0.124590133113E+04   -0.17811E+01   -0.17748E+01  2268   0.564E+00    0.802E+01
RMM:   6    -0.122636911059E+04    0.19532E+02   -0.10111E+01  2145   0.507E+00    0.609E+01
RMM:   7    -0.119476321280E+04    0.31606E+02   -0.46793E+01  2123   0.962E+00    0.371E+01
RMM:   8    -0.117916063885E+04    0.15603E+02   -0.27518E+01  2078   0.777E+00    0.273E+01
RMM:   9    -0.117625339849E+04    0.29072E+01   -0.84051E+00  2083   0.627E+00    0.196E+01
RMM:  10    -0.117751562863E+04   -0.12622E+01   -0.12462E+01  2107   0.496E+00    0.120E+01
RMM:  11    -0.117822062116E+04   -0.70499E+00   -0.17385E+00  2073   0.280E+00    0.890E+00
RMM:  12    -0.117681627424E+04    0.14043E+01   -0.22011E+00  2089   0.205E+00    0.367E+00
RMM:  13    -0.117669200729E+04    0.12427E+00   -0.76738E-01  2087   0.199E+00    0.145E+00
RMM:  14    -0.117668809640E+04    0.39109E-02   -0.80044E-02  2066   0.690E-01    0.743E-01
RMM:  15    -0.117668765989E+04    0.43651E-03   -0.26552E-02  2102   0.247E-01    0.515E-01
RMM:  16    -0.117668664173E+04    0.10182E-02   -0.91805E-03  2012   0.177E-01    0.213E-01
RMM:  17    -0.117668680242E+04   -0.16069E-03   -0.23366E-03  1516   0.116E-01    0.183E-01
RMM:  18    -0.117668695344E+04   -0.15101E-03   -0.45850E-04  1208   0.126E-01    0.136E-01
RMM:  19    -0.117668695489E+04   -0.14501E-05   -0.28333E-04  1227   0.174E-01
   1 F= -.11839832E+04 E0= -.11839832E+04  d E =-.118398E+04  mag=     0.0032
       N       E                     dE             d eps       ncg     rms          rms(c)
DAV:   1    -0.117668308108E+04    0.38724E-02   -0.92793E-01  1944   0.173E+00    0.909E-01
RMM:   2    -0.117668579806E+04   -0.27170E-02   -0.33311E-02  2281   0.256E-01    0.741E-01
RMM:   3    -0.117668495037E+04    0.84769E-03   -0.29584E-03  1351   0.428E-01    0.756E-01
RMM:   4    -0.117668534295E+04   -0.39257E-03   -0.88828E-03  2085   0.185E-01    0.356E-01
RMM:   5    -0.117668502722E+04    0.31573E-03   -0.48436E-04  1173   0.108E-01    0.187E-01
RMM:   6    -0.117668473908E+04    0.28814E-03   -0.20219E-04  1143   0.101E-01    0.219E-01
RMM:   7    -0.117668472988E+04    0.92008E-05   -0.11445E-07  1119   0.150E-01
   2 F= -.11839822E+04 E0= -.11839822E+04  d E =0.950027E-03  mag=     0.0000
       N       E                     dE             d eps       ncg     rms          rms(c)
DAV:   1    -0.117668722976E+04   -0.24907E-02   -0.28425E-01  1836   0.977E-01    0.367E-01
RMM:   2    -0.117668790018E+04   -0.67042E-03   -0.93032E-03  2150   0.138E-01    0.310E-01
RMM:   3    -0.117668772538E+04    0.17480E-03   -0.11816E-03  1293   0.318E-01    0.315E-01
RMM:   4    -0.117668736548E+04    0.35991E-03   -0.58643E-04  1340   0.108E-01    0.222E-01
RMM:   5    -0.117668757886E+04   -0.21338E-03   -0.21299E-03  1668   0.165E-01    0.115E-01
RMM:   6    -0.117668753157E+04    0.47290E-04   -0.47536E-04  1261   0.140E-01
   3 F= -.11839843E+04 E0= -.11839843E+04  d E =-.114226E-02  mag=    -0.0000
       N       E                     dE             d eps       ncg     rms          rms(c)
DAV:   1    -0.117668881156E+04   -0.12327E-02   -0.35327E-01  2016   0.114E+00    0.246E-01
RMM:   2    -0.117668941925E+04   -0.60769E-03   -0.10615E-02  2125   0.149E-01    0.655E-01
RMM:   3    -0.117668957217E+04   -0.15292E-03   -0.17432E-03  1263   0.311E-01    0.244E-01
RMM:   4    -0.117668929501E+04    0.27716E-03   -0.11122E-04  1154   0.104E-01    0.207E-01
RMM:   5    -0.117668880211E+04    0.49290E-03   -0.24079E-04  1202   0.122E-01    0.176E-01
RMM:   6    -0.117668863277E+04    0.16934E-03   -0.25710E-03  1783   0.161E-01    0.122E-01
RMM:   7    -0.117668867721E+04   -0.44440E-04   -0.51290E-04  1239   0.119E-01
   4 F= -.11839855E+04 E0= -.11839855E+04  d E =-.121298E-02  mag=     0.0000
       N       E                     dE             d eps       ncg     rms          rms(c)
DAV:   1    -0.117668843502E+04    0.19775E-03   -0.83346E-02  2160   0.562E-01    0.212E-01
RMM:   2    -0.117668863639E+04   -0.20137E-03   -0.26759E-03  1997   0.731E-02    0.435E-01
RMM:   3    -0.117668866121E+04   -0.24812E-04   -0.46558E-04  1178   0.173E-01
   5 F= -.11839855E+04 E0= -.11839855E+04  d E =-.123145E-02  mag=     0.0000
       N       E                     dE             d eps       ncg     rms          rms(c)
DAV:   1    -0.117668954566E+04   -0.90926E-03   -0.34872E-01  2088   0.977E-01    0.257E-01
RMM:   2    -0.117668988507E+04   -0.33942E-03   -0.81284E-03  2051   0.127E-01    0.293E-01
RMM:   3    -0.117668982156E+04    0.63514E-04   -0.12990E-03  1292   0.331E-01    0.225E-01
RMM:   4    -0.117668934328E+04    0.47828E-03   -0.16465E-04  1148   0.101E-01    0.171E-01
RMM:   5    -0.117668898319E+04    0.36009E-03   -0.10858E-03  1482   0.142E-01    0.861E-02
RMM:   6    -0.117668903148E+04   -0.48291E-04   -0.83108E-04  1378   0.153E-01
   6 F= -.11839860E+04 E0= -.11839860E+04  d E =-.487137E-03  mag=    -0.0000
       N       E                     dE             d eps       ncg     rms          rms(c)
DAV:   1    -0.117668639033E+04    0.25929E-02   -0.81611E-01  1980   0.151E+00    0.302E-01
RMM:   2    -0.117668731405E+04   -0.92371E-03   -0.13599E-02  2077   0.198E-01    0.141E+00
RMM:   3    -0.117668792015E+04   -0.60610E-03   -0.82026E-03  1354   0.522E-01    0.267E-01
RMM:   4    -0.117668772034E+04    0.19981E-03   -0.31026E-04  1229   0.115E-01    0.254E-01
RMM:   5    -0.117668730432E+04    0.41602E-03   -0.42288E-04  1269   0.131E-01    0.190E-01
RMM:   6    -0.117668734578E+04   -0.41461E-04   -0.16970E-03  1640   0.164E-01    0.176E-01
RMM:   7    -0.117668739140E+04   -0.45618E-04   -0.54423E-04  1277   0.141E-01
   7 F= -.11839846E+04 E0= -.11839846E+04  d E =0.961075E-03  mag=     0.0000
       N       E                     dE             d eps       ncg     rms          rms(c)
DAV:   1    -0.117668918833E+04   -0.18426E-02   -0.32147E-01  1980   0.944E-01    0.195E-01
RMM:   2    -0.117668950096E+04   -0.31263E-03   -0.69490E-03  2067   0.120E-01    0.269E-01
RMM:   3    -0.117668953713E+04   -0.36169E-04   -0.10711E-03  1278   0.310E-01    0.174E-01
RMM:   4    -0.117668925383E+04    0.28330E-03   -0.84880E-05  1119   0.100E-01    0.154E-01
RMM:   5    -0.117668886626E+04    0.38757E-03   -0.18181E-04  1132   0.113E-01    0.133E-01
RMM:   6    -0.117668871723E+04    0.14903E-03   -0.11707E-03  1460   0.153E-01    0.637E-02
RMM:   7    -0.117668875522E+04   -0.37989E-04   -0.55158E-04  1317   0.153E-01
   8 F= -.11839858E+04 E0= -.11839858E+04  d E =-.284070E-03  mag=    -0.0000
