       N       E                     dE             d eps       ncg     rms          rms(c)
DAV:   1     0.494493345622E+04    0.49449E+04   -0.16900E+05  1692   0.987E+02
DAV:   2     0.139644732738E+02   -0.49310E+04   -0.45326E+04  2268   0.221E+02
DAV:   3    -0.118011708918E+04   -0.11941E+04   -0.11871E+04  1836   0.121E+02
DAV:   4    -0.123411179620E+04   -0.53995E+02   -0.53579E+02  1872   0.347E+01
DAV:   5    -0.123553349689E+04   -0.14217E+01   -0.14154E+01  1980   0.536E+00    0.664E+01
RMM:   6    -0.122007438121E+04    0.15459E+02   -0.23192E+01  1462   0.578E+00    0.515E+01
RMM:   7    -0.120141127727E+04    0.18663E+02   -0.12189E+01  1440   0.448E+00    0.403E+01
RMM:   8    -0.117429202960E+04    0.27119E+02   -0.42674E+01  1441   0.834E+00    0.253E+01
RMM:   9    -0.116821694323E+04    0.60751E+01   -0.15143E+01  1440   0.551E+00    0.176E+01
RMM:  10    -0.116935081673E+04   -0.11339E+01   -0.11825E+01  1441   0.458E+00    0.869E+00
RMM:  11    -0.116937989429E+04   -0.29078E-01   -0.11885E+00  1478   0.218E+00    0.690E+00
RMM:  12    -0.116876411988E+04    0.61577E+00   -0.69521E-01  1440   0.972E-01    0.461E+00
RMM:  13    -0.116856854421E+04    0.19558E+00   -0.82202E-01  1440   0.120E+00    0.141E+00
RMM:  14    -0.116855308105E+04    0.15463E-01   -0.79625E-02  1524   0.488E-01    0.126E+00
RMM:  15    -0.116855081355E+04    0.22675E-02   -0.33752E-02  1471   0.217E-01    0.798E-01
RMM:  16    -0.116854828877E+04    0.25248E-02   -0.66508E-03  1477   0.136E-01    0.546E-01
RMM:  17    -0.116854845000E+04   -0.16123E-03   -0.21032E-03  1440   0.584E-02    0.393E-01
RMM:  18    -0.116854866397E+04   -0.21397E-03   -0.66713E-04  1183   0.440E-02    0.210E-01
RMM:  19    -0.116854868281E+04   -0.18836E-04   -0.50660E-04  1129   0.295E-02
   1 F= -.11758327E+04 E0= -.11758327E+04  d E =-.117583E+04  mag=    -1.0097
       N       E                     dE             d eps       ncg     rms          rms(c)
DAV:   1    -0.116854924159E+04   -0.57762E-03   -0.26749E-01  1512   0.878E-01    0.190E-01
RMM:   2    -0.116854938303E+04   -0.14145E-03   -0.66035E-03  1444   0.136E-01    0.180E-01
RMM:   3    -0.116854897011E+04    0.41292E-03   -0.54481E-04  1170   0.445E-02    0.178E-01
RMM:   4    -0.116854883819E+04    0.13192E-03   -0.11817E-04   906   0.200E-02    0.161E-01
RMM:   5    -0.116854809667E+04    0.74152E-03   -0.25499E-03  1440   0.610E-02    0.471E-02
RMM:   6    -0.116854810537E+04   -0.87052E-05   -0.15600E-04   918   0.240E-02
   2 F= -.11758323E+04 E0= -.11758323E+04  d E =0.324384E-03  mag=    -0.9993
       N       E                     dE             d eps       ncg     rms          rms(c)
DAV:   1    -0.116854948188E+04   -0.13852E-02   -0.76336E-02  1548   0.466E-01    0.983E-02
RMM:   2    -0.116854945030E+04    0.31587E-04   -0.15555E-03  1440   0.689E-02    0.977E-02
RMM:   3    -0.116854936430E+04    0.85998E-04   -0.87917E-05   883   0.205E-02
   3 F= -.11758335E+04 E0= -.11758335E+04  d E =-.798934E-03  mag=    -0.9997
