       N       E                     dE             d eps       ncg     rms          rms(c)
DAV:   1     0.492995996017E+04    0.49300E+04   -0.16876E+05  1800   0.904E+02
DAV:   2    -0.393055159607E+02   -0.49693E+04   -0.45234E+04  2520   0.209E+02
DAV:   3    -0.117377949365E+04   -0.11345E+04   -0.11288E+04  2160   0.110E+02
DAV:   4    -0.122036656438E+04   -0.46587E+02   -0.46391E+02  2052   0.294E+01
DAV:   5    -0.122156409760E+04   -0.11975E+01   -0.11958E+01  2412   0.442E+00    0.599E+01
RMM:   6    -0.120901157126E+04    0.12553E+02   -0.84227E+00  1585   0.378E+00    0.488E+01
RMM:   7    -0.117632555903E+04    0.32686E+02   -0.40727E+01  1585   0.749E+00    0.305E+01
RMM:   8    -0.116287199511E+04    0.13454E+02   -0.19178E+01  1584   0.505E+00    0.222E+01
RMM:   9    -0.116035619223E+04    0.25158E+01   -0.32699E+01  1584   0.657E+00    0.898E+00
RMM:  10    -0.116025375404E+04    0.10244E+00   -0.92530E-01  1631   0.132E+00    0.539E+00
RMM:  11    -0.115962881340E+04    0.62494E+00   -0.16574E+00  1584   0.144E+00    0.174E+00
RMM:  12    -0.115959815941E+04    0.30654E-01   -0.13147E-01  1600   0.389E-01    0.638E-01
RMM:  13    -0.115959469508E+04    0.34643E-02   -0.45429E-02  1584   0.246E-01    0.304E-01
RMM:  14    -0.115959342327E+04    0.12718E-02   -0.67128E-03  1611   0.958E-02    0.143E-01
RMM:  15    -0.115959362527E+04   -0.20200E-03   -0.16064E-03  1584   0.473E-02    0.945E-02
RMM:  16    -0.115959372901E+04   -0.10374E-03   -0.28061E-04  1148   0.231E-02    0.704E-02
RMM:  17    -0.115959381534E+04   -0.86334E-04   -0.48871E-04  1317   0.272E-02
   1 F= -.11666250E+04 E0= -.11666250E+04  d E =-.116662E+04  mag=    -0.0017
       N       E                     dE             d eps       ncg     rms          rms(c)
DAV:   1    -0.115959319575E+04    0.53326E-03   -0.20640E-01  1836   0.741E-01    0.129E-01
RMM:   2    -0.115959362795E+04   -0.43220E-03   -0.66396E-03  1584   0.114E-01    0.124E-01
RMM:   3    -0.115959350131E+04    0.12664E-03   -0.34802E-04  1211   0.276E-02    0.114E-01
RMM:   4    -0.115959308608E+04    0.41523E-03   -0.16218E-03  1584   0.451E-02    0.409E-02
RMM:   5    -0.115959308177E+04    0.43123E-05   -0.86558E-05  1035   0.138E-02
   2 F= -.11666243E+04 E0= -.11666243E+04  d E =0.650101E-03  mag=    -0.0003
       N       E                     dE             d eps       ncg     rms          rms(c)
DAV:   1    -0.115959426594E+04   -0.11799E-02   -0.88698E-02  1692   0.485E-01    0.756E-02
RMM:   2    -0.115959438957E+04   -0.12364E-03   -0.21661E-03  1584   0.684E-02    0.727E-02
RMM:   3    -0.115959433471E+04    0.54858E-04   -0.93548E-05  1023   0.151E-02
   3 F= -.11666255E+04 E0= -.11666255E+04  d E =-.547171E-03  mag=     0.0001
