       N       E                     dE             d eps       ncg     rms          rms(c)
DAV:   1     0.490727525514E+04    0.49073E+04   -0.17027E+05  1836   0.908E+02
DAV:   2    -0.543630940047E+02   -0.49616E+04   -0.45172E+04  2520   0.208E+02
DAV:   3    -0.118857990663E+04   -0.11342E+04   -0.11282E+04  2160   0.110E+02
DAV:   4    -0.123324403411E+04   -0.44664E+02   -0.44446E+02  1980   0.286E+01
DAV:   5    -0.123441116666E+04   -0.11671E+01   -0.11648E+01  2304   0.442E+00    0.666E+01
RMM:   6    -0.121720686433E+04    0.17204E+02   -0.27062E+01  1584   0.525E+00    0.546E+01
RMM:   7    -0.120328061691E+04    0.13926E+02   -0.67937E+00  1584   0.294E+00    0.430E+01
RMM:   8    -0.118416408890E+04    0.19117E+02   -0.15602E+01  1584   0.458E+00    0.315E+01
RMM:   9    -0.116748651165E+04    0.16678E+02   -0.25483E+01  1584   0.578E+00    0.211E+01
RMM:  10    -0.116522433581E+04    0.22622E+01   -0.14419E+01  1584   0.433E+00    0.124E+01
RMM:  11    -0.116644912922E+04   -0.12248E+01   -0.39926E+00  1591   0.234E+00    0.716E+00
RMM:  12    -0.116582977793E+04    0.61935E+00   -0.14568E+00  1584   0.129E+00    0.346E+00
RMM:  13    -0.116564172792E+04    0.18805E+00   -0.36297E-01  1584   0.679E-01    0.211E+00
RMM:  14    -0.116558992233E+04    0.51806E-01   -0.96946E-02  1596   0.287E-01    0.639E-01
RMM:  15    -0.116559015304E+04   -0.23071E-03   -0.14743E-02  1588   0.135E-01    0.407E-01
RMM:  16    -0.116559090254E+04   -0.74950E-03   -0.47338E-03  1600   0.829E-02    0.208E-01
RMM:  17    -0.116559087331E+04    0.29229E-04   -0.96283E-04  1386   0.343E-02
   1 F= -.11727326E+04 E0= -.11727326E+04  d E =-.117273E+04  mag=     1.0015
       N       E                     dE             d eps       ncg     rms          rms(c)
DAV:   1    -0.116558643094E+04    0.44716E-02   -0.25051E+00  1656   0.194E+00    0.835E-01
RMM:   2    -0.116559099971E+04   -0.45688E-02   -0.57437E-02  1584   0.291E-01    0.751E-01
RMM:   3    -0.116559097289E+04    0.26823E-04   -0.31317E-03  1621   0.628E-02    0.644E-01
RMM:   4    -0.116559037471E+04    0.59818E-03   -0.36854E-03  1584   0.689E-02    0.326E-01
RMM:   5    -0.116559059165E+04   -0.21693E-03   -0.58943E-04  1290   0.287E-02    0.142E-01
RMM:   6    -0.116559065761E+04   -0.65968E-04   -0.16190E-04  1068   0.172E-02
   2 F= -.11727332E+04 E0= -.11727332E+04  d E =-.589853E-03  mag=     1.0001
       N       E                     dE             d eps       ncg     rms          rms(c)
DAV:   1    -0.116559340205E+04   -0.28104E-02   -0.53367E-01  1620   0.899E-01    0.388E-01
RMM:   2    -0.116559417725E+04   -0.77520E-03   -0.11517E-02  1584   0.129E-01    0.354E-01
RMM:   3    -0.116559405310E+04    0.12416E-03   -0.58647E-04  1199   0.276E-02    0.307E-01
RMM:   4    -0.116559378451E+04    0.26859E-03   -0.13709E-03  1555   0.418E-02    0.147E-01
RMM:   5    -0.116559384633E+04   -0.61821E-04   -0.15016E-04  1063   0.152E-02
   3 F= -.11727360E+04 E0= -.11727360E+04  d E =-.340263E-02  mag=     1.0000
       N       E                     dE             d eps       ncg     rms          rms(c)
DAV:   1    -0.116559183203E+04    0.19525E-02   -0.99026E-01  1656   0.144E+00    0.427E-01
RMM:   2    -0.116559336159E+04   -0.15296E-02   -0.22263E-02  1584   0.197E-01    0.385E-01
RMM:   3    -0.116559295342E+04    0.40817E-03   -0.11531E-03  1481   0.431E-02    0.324E-01
RMM:   4    -0.116559216248E+04    0.79094E-03   -0.27167E-03  1584   0.602E-02    0.154E-01
RMM:   5    -0.116559224296E+04   -0.80477E-04   -0.25847E-04  1133   0.209E-02
   4 F= -.11727347E+04 E0= -.11727347E+04  d E =0.125188E-02  mag=     1.0000
       N       E                     dE             d eps       ncg     rms          rms(c)
DAV:   1    -0.116559469900E+04   -0.25365E-02   -0.36739E-01  1728   0.881E-01    0.260E-01
RMM:   2    -0.116559522521E+04   -0.52621E-03   -0.86969E-03  1584   0.121E-01    0.234E-01
RMM:   3    -0.116559498643E+04    0.23878E-03   -0.43003E-04  1208   0.271E-02    0.197E-01
RMM:   4    -0.116559456830E+04    0.41813E-03   -0.14754E-03  1574   0.443E-02    0.891E-02
RMM:   5    -0.116559460658E+04   -0.38280E-04   -0.94101E-05  1017   0.134E-02
   5 F= -.11727369E+04 E0= -.11727369E+04  d E =-.898544E-03  mag=     1.0000
