       N       E                     dE             d eps       ncg     rms          rms(c)
DAV:   1     0.462401692155E+04    0.46240E+04   -0.17339E+05  1908   0.902E+02
DAV:   2    -0.127330049760E+03   -0.47513E+04   -0.43292E+04  2556   0.203E+02
DAV:   3    -0.119447193340E+04   -0.10671E+04   -0.10628E+04  2088   0.105E+02
DAV:   4    -0.123694303172E+04   -0.42471E+02   -0.42251E+02  2052   0.276E+01
DAV:   5    -0.123804521226E+04   -0.11022E+01   -0.11001E+01  2376   0.407E+00    0.630E+01
RMM:   6    -0.122452499270E+04    0.13520E+02   -0.77996E+00  1587   0.310E+00    0.519E+01
RMM:   7    -0.118098848333E+04    0.43537E+02   -0.86417E+01  1591   0.101E+01    0.285E+01
RMM:   8    -0.117603271806E+04    0.49558E+01   -0.10861E+01  1601   0.377E+00    0.209E+01
RMM:   9    -0.117334012254E+04    0.26926E+01   -0.25200E+01  1584   0.564E+00    0.996E+00
RMM:  10    -0.117364249942E+04   -0.30238E+00   -0.19087E+00  1611   0.163E+00    0.739E+00
RMM:  11    -0.117281816354E+04    0.82434E+00   -0.44422E+00  1585   0.218E+00    0.282E+00
RMM:  12    -0.117258598189E+04    0.23218E+00   -0.38637E-01  1622   0.565E-01    0.115E+00
RMM:  13    -0.117258762180E+04   -0.16399E-02   -0.41997E-02  1654   0.196E-01    0.815E-01
RMM:  14    -0.117257163620E+04    0.15986E-01   -0.45999E-02  1594   0.228E-01    0.370E-01
RMM:  15    -0.117257199548E+04   -0.35928E-03   -0.52432E-03  1606   0.822E-02    0.337E-01
RMM:  16    -0.117257138285E+04    0.61264E-03   -0.20412E-03  1617   0.464E-02    0.231E-01
RMM:  17    -0.117257133144E+04    0.51409E-04   -0.21487E-03  1576   0.466E-02    0.120E-01
RMM:  18    -0.117257136814E+04   -0.36700E-04   -0.46369E-04  1256   0.243E-02
   1 F= -.11798361E+04 E0= -.11798361E+04  d E =-.117984E+04  mag=     0.0037
       N       E                     dE             d eps       ncg     rms          rms(c)
DAV:   1    -0.117257013419E+04    0.11972E-02   -0.26844E-01  1656   0.849E-01    0.146E-01
RMM:   2    -0.117257085839E+04   -0.72420E-03   -0.96862E-03  1600   0.133E-01    0.143E-01
RMM:   3    -0.117257073770E+04    0.12069E-03   -0.52572E-04  1357   0.298E-02    0.135E-01
RMM:   4    -0.117257027205E+04    0.46566E-03   -0.24258E-03  1584   0.528E-02    0.482E-02
RMM:   5    -0.117257025795E+04    0.14093E-04   -0.91117E-05  1055   0.138E-02
   2 F= -.11798353E+04 E0= -.11798353E+04  d E =0.755463E-03  mag=     0.0008
       N       E                     dE             d eps       ncg     rms          rms(c)
DAV:   1    -0.117257177959E+04   -0.15075E-02   -0.10451E-01  1620   0.527E-01    0.807E-02
RMM:   2    -0.117257192822E+04   -0.14863E-03   -0.25399E-03  1600   0.730E-02    0.777E-02
RMM:   3    -0.117257185428E+04    0.73934E-04   -0.11082E-04  1057   0.157E-02
   3 F= -.11798367E+04 E0= -.11798367E+04  d E =-.616664E-03  mag=    -0.0005
