       N       E                     dE             d eps       ncg     rms          rms(c)
DAV:   1     0.486997210709E+04    0.48700E+04   -0.17398E+05  1824   0.936E+02
DAV:   2    -0.443163646977E+02   -0.49143E+04   -0.44656E+04  2432   0.213E+02
DAV:   3    -0.118166502627E+04   -0.11373E+04   -0.11320E+04  2016   0.112E+02
DAV:   4    -0.122887672137E+04   -0.47212E+02   -0.46942E+02  1952   0.302E+01
DAV:   5    -0.123005534182E+04   -0.11786E+01   -0.11759E+01  2304   0.439E+00    0.649E+01
RMM:   6    -0.121105403839E+04    0.19001E+02   -0.13994E+01  1626   0.481E+00    0.558E+01
RMM:   7    -0.119801034601E+04    0.13044E+02   -0.11162E+01  1569   0.406E+00    0.478E+01
RMM:   8    -0.116598691799E+04    0.32023E+02   -0.53011E+01  1742   0.903E+00    0.297E+01
RMM:   9    -0.116256905849E+04    0.34179E+01   -0.11769E+01  1592   0.527E+00    0.287E+01
RMM:  10    -0.116165281083E+04    0.91625E+00   -0.26831E+00  1671   0.246E+00    0.223E+01
RMM:  11    -0.116142867329E+04    0.22414E+00   -0.25936E+00  1614   0.219E+00    0.122E+01
RMM:  12    -0.116145001305E+04   -0.21340E-01   -0.29605E+00  1548   0.226E+00    0.836E+00
RMM:  13    -0.116168301781E+04   -0.23300E+00   -0.52767E-01  1727   0.118E+00    0.436E+00
RMM:  14    -0.116162353549E+04    0.59482E-01   -0.20840E-01  1578   0.646E-01    0.215E+00
RMM:  15    -0.116161191982E+04    0.11616E-01   -0.15919E-01  1552   0.526E-01    0.194E+00
RMM:  16    -0.116160290696E+04    0.90129E-02   -0.25605E-02  1573   0.268E-01    0.745E-01
RMM:  17    -0.116160122758E+04    0.16794E-02   -0.24920E-02  1599   0.210E-01    0.744E-01
RMM:  18    -0.116160460637E+04   -0.33788E-02   -0.59700E-03  1617   0.117E-01    0.277E-01
RMM:  19    -0.116160530954E+04   -0.70317E-03   -0.12531E-03  1756   0.541E-02    0.244E-01
RMM:  20    -0.116160639306E+04   -0.10835E-02   -0.12632E-03  1608   0.463E-02    0.172E-01
RMM:  21    -0.116160780427E+04   -0.14112E-02   -0.97799E-04  1612   0.413E-02    0.145E-01
RMM:  22    -0.116160862849E+04   -0.82421E-03   -0.61253E-04  1627   0.295E-02    0.119E-01
RMM:  23    -0.116160992699E+04   -0.12985E-02   -0.12511E-03  1702   0.392E-02    0.132E-01
RMM:  24    -0.116161053406E+04   -0.60707E-03   -0.47632E-04  1615   0.241E-02    0.114E-01
RMM:  25    -0.116161220807E+04   -0.16740E-02   -0.29129E-03  1890   0.554E-02    0.102E-01
RMM:  26    -0.116161335379E+04   -0.11457E-02   -0.19004E-03  1789   0.419E-02    0.112E-01
RMM:  27    -0.116161418333E+04   -0.82955E-03   -0.21329E-03  1854   0.453E-02    0.716E-02
RMM:  28    -0.116161475775E+04   -0.57442E-03   -0.25855E-03  1884   0.478E-02    0.826E-02
RMM:  29    -0.116161510691E+04   -0.34916E-03   -0.16467E-04  1627   0.180E-02    0.701E-02
RMM:  30    -0.116161521798E+04   -0.11106E-03   -0.10823E-03  1974   0.348E-02    0.504E-02
RMM:  31    -0.116161527893E+04   -0.60950E-04   -0.10073E-03  1837   0.301E-02    0.380E-02
RMM:  32    -0.116161544129E+04   -0.16237E-03   -0.17394E-04  1670   0.169E-02    0.164E-02
RMM:  33    -0.116161541917E+04    0.22125E-04   -0.16524E-04  1705   0.131E-02    0.198E-02
RMM:  34    -0.116161546916E+04   -0.49991E-04   -0.14978E-05  1354   0.547E-03    0.962E-03
RMM:  35    -0.116161547179E+04   -0.26362E-05   -0.39310E-06  1186   0.250E-03    0.681E-03
RMM:  36    -0.116161547003E+04    0.17672E-05   -0.36071E-06  1119   0.194E-03    0.406E-03
RMM:  37    -0.116161547133E+04   -0.13044E-05   -0.13467E-06  1052   0.128E-03    0.237E-03
RMM:  38    -0.116161547218E+04   -0.84910E-06   -0.23648E-07   961   0.720E-04
   1 F= -.11616155E+04 E0= -.11616132E+04  d E =-.116162E+04  mag=     3.9448
       N       E                     dE             d eps       ncg     rms          rms(c)
DAV:   1    -0.116108083461E+04    0.53464E+00   -0.39115E+01  1920   0.155E+01    0.309E+00
RMM:   2    -0.116151868299E+04   -0.43785E+00   -0.43912E+00  1825   0.241E+00    0.221E+00
RMM:   3    -0.116157318691E+04   -0.54504E-01   -0.50017E-01  1937   0.895E-01    0.157E+00
RMM:   4    -0.116158286782E+04   -0.96809E-02   -0.11875E-01  1816   0.394E-01    0.998E-01
RMM:   5    -0.116158093268E+04    0.19351E-02   -0.28262E-02  1760   0.208E-01    0.671E-01
RMM:   6    -0.116158386597E+04   -0.29333E-02   -0.23358E-02  1591   0.196E-01    0.216E-01
RMM:   7    -0.116158442595E+04   -0.55998E-03   -0.32999E-03  1809   0.855E-02    0.150E-01
RMM:   8    -0.116158437257E+04    0.53382E-04   -0.82202E-04  1747   0.389E-02    0.116E-01
RMM:   9    -0.116158417208E+04    0.20049E-03   -0.97691E-04  1577   0.403E-02    0.569E-02
RMM:  10    -0.116158423120E+04   -0.59122E-04   -0.23401E-04  1764   0.199E-02    0.341E-02
RMM:  11    -0.116158422906E+04    0.21434E-05   -0.40941E-05  1735   0.874E-03    0.230E-02
RMM:  12    -0.116158423091E+04   -0.18516E-05   -0.34742E-05  1599   0.756E-03    0.156E-02
RMM:  13    -0.116158423599E+04   -0.50790E-05   -0.11468E-05  1628   0.447E-03    0.125E-02
RMM:  14    -0.116158423890E+04   -0.29128E-05   -0.45630E-06  1377   0.280E-03    0.112E-02
RMM:  15    -0.116158424584E+04   -0.69322E-05   -0.50743E-06  1197   0.270E-03    0.103E-02
RMM:  16    -0.116158425175E+04   -0.59136E-05   -0.43020E-06  1149   0.230E-03    0.930E-03
RMM:  17    -0.116158425760E+04   -0.58492E-05   -0.66011E-06  1219   0.267E-03    0.881E-03
RMM:  18    -0.116158426061E+04   -0.30110E-05   -0.26225E-05  1413   0.494E-03    0.669E-03
RMM:  19    -0.116158426950E+04   -0.88927E-05   -0.10914E-05  1273   0.315E-03    0.499E-03
RMM:  20    -0.116158426983E+04   -0.32498E-06   -0.18778E-05  1383   0.416E-03    0.318E-03
RMM:  21    -0.116158427754E+04   -0.77128E-05   -0.22397E-06  1076   0.178E-03    0.209E-03
RMM:  22    -0.116158428000E+04   -0.24593E-05   -0.65361E-07  1030   0.112E-03    0.108E-03
RMM:  23    -0.116158428033E+04   -0.33515E-06   -0.25009E-07   935   0.674E-04
   2 F= -.11615843E+04 E0= -.11615810E+04  d E =0.311918E-01  mag=     3.9123
       N       E                     dE             d eps       ncg     rms          rms(c)
DAV:   1    -0.116152721118E+04    0.57069E-01   -0.11783E+01  1824   0.837E+00    0.165E+00
RMM:   2    -0.116165687645E+04   -0.12967E+00   -0.13100E+00  1807   0.129E+00    0.124E+00
RMM:   3    -0.116167342833E+04   -0.16552E-01   -0.14700E-01  1865   0.482E-01    0.841E-01
RMM:   4    -0.116167670814E+04   -0.32798E-02   -0.35428E-02  1793   0.216E-01    0.543E-01
RMM:   5    -0.116167676273E+04   -0.54584E-04   -0.89356E-03  1756   0.115E-01    0.353E-01
RMM:   6    -0.116167788931E+04   -0.11266E-02   -0.57693E-03  1597   0.992E-02    0.137E-01
RMM:   7    -0.116167811826E+04   -0.22895E-03   -0.92334E-04  1878   0.439E-02    0.934E-02
RMM:   8    -0.116167810355E+04    0.14719E-04   -0.25612E-04  1663   0.213E-02    0.637E-02
RMM:   9    -0.116167813434E+04   -0.30799E-04   -0.22249E-04  1592   0.193E-02    0.293E-02
RMM:  10    -0.116167813927E+04   -0.49233E-05   -0.48265E-05  1941   0.907E-03    0.206E-02
RMM:  11    -0.116167814261E+04   -0.33397E-05   -0.13165E-05  1595   0.494E-03    0.142E-02
RMM:  12    -0.116167814627E+04   -0.36607E-05   -0.11206E-05  1549   0.416E-03    0.867E-03
RMM:  13    -0.116167814790E+04   -0.16336E-05   -0.40378E-06  1264   0.257E-03    0.679E-03
RMM:  14    -0.116167814942E+04   -0.15178E-05   -0.15663E-06  1059   0.176E-03    0.604E-03
RMM:  15    -0.116167815157E+04   -0.21522E-05   -0.15096E-06  1056   0.152E-03    0.554E-03
RMM:  16    -0.116167815330E+04   -0.17244E-05   -0.11429E-06  1063   0.119E-03    0.518E-03
RMM:  17    -0.116167815521E+04   -0.19128E-05   -0.28727E-06  1105   0.182E-03    0.471E-03
RMM:  18    -0.116167815645E+04   -0.12388E-05   -0.35119E-06  1125   0.178E-03    0.403E-03
RMM:  19    -0.116167815435E+04    0.20981E-05   -0.11766E-05  1281   0.332E-03    0.341E-03
RMM:  20    -0.116167815788E+04   -0.35319E-05   -0.48917E-06  1152   0.204E-03    0.206E-03
RMM:  21    -0.116167816172E+04   -0.38369E-05   -0.86582E-07  1016   0.113E-03    0.144E-03
RMM:  22    -0.116167816232E+04   -0.59798E-06   -0.30670E-07   897   0.674E-04
   3 F= -.11616782E+04 E0= -.11616755E+04  d E =-.626901E-01  mag=     3.9310
       N       E                     dE             d eps       ncg     rms          rms(c)
DAV:   1    -0.116077693800E+04    0.90122E+00   -0.36329E+01  2016   0.182E+01    0.415E+00
RMM:   2    -0.116159634749E+04   -0.81941E+00   -0.80147E+00  1872   0.272E+00    0.261E+00
RMM:   3    -0.116169891765E+04   -0.10257E+00   -0.77967E-01  1857   0.958E-01    0.170E+00
RMM:   4    -0.116172183784E+04   -0.22920E-01   -0.12284E-01  1773   0.399E-01    0.984E-01
RMM:   5    -0.116172478990E+04   -0.29521E-02   -0.22190E-02  1841   0.182E-01    0.711E-01
RMM:   6    -0.116172999302E+04   -0.52031E-02   -0.16619E-02  1601   0.169E-01    0.226E-01
RMM:   7    -0.116173159062E+04   -0.15976E-02   -0.26126E-03  1844   0.765E-02    0.138E-01
RMM:   8    -0.116173167831E+04   -0.87691E-04   -0.55424E-04  1678   0.338E-02    0.874E-02
RMM:   9    -0.116173167722E+04    0.10948E-05   -0.49284E-04  1638   0.272E-02    0.453E-02
RMM:  10    -0.116173172794E+04   -0.50724E-04   -0.19152E-04  1706   0.177E-02    0.318E-02
RMM:  11    -0.116173171869E+04    0.92513E-05   -0.43663E-05  1607   0.918E-03    0.198E-02
RMM:  12    -0.116173172946E+04   -0.10764E-04   -0.25571E-05  1603   0.674E-03    0.146E-02
RMM:  13    -0.116173173207E+04   -0.26133E-05   -0.60369E-06  1399   0.329E-03    0.125E-02
RMM:  14    -0.116173174200E+04   -0.99278E-05   -0.13995E-05  1579   0.454E-03    0.111E-02
RMM:  15    -0.116173174771E+04   -0.57174E-05   -0.39902E-06  1154   0.238E-03    0.101E-02
RMM:  16    -0.116173175336E+04   -0.56444E-05   -0.12492E-05  1548   0.379E-03    0.843E-03
RMM:  17    -0.116173175929E+04   -0.59346E-05   -0.12305E-05  1333   0.364E-03    0.766E-03
RMM:  18    -0.116173176443E+04   -0.51406E-05   -0.12157E-05  1326   0.344E-03    0.597E-03
RMM:  19    -0.116173176432E+04    0.11033E-06   -0.27839E-05  1449   0.500E-03    0.393E-03
RMM:  20    -0.116173177341E+04   -0.90856E-05   -0.42652E-06  1156   0.215E-03    0.220E-03
RMM:  21    -0.116173177618E+04   -0.27682E-05   -0.98120E-07  1031   0.119E-03    0.120E-03
RMM:  22    -0.116173177736E+04   -0.11821E-05   -0.24368E-07   961   0.690E-04    0.767E-04
RMM:  23    -0.116173177769E+04   -0.32946E-06   -0.56569E-08   771   0.438E-04
   4 F= -.11617318E+04 E0= -.11617282E+04  d E =-.536154E-01  mag=     3.9013
       N       E                     dE             d eps       ncg     rms          rms(c)
DAV:   1    -0.116169229653E+04    0.39481E-01   -0.17468E+00  2016   0.392E+00    0.868E-01
RMM:   2    -0.116172909792E+04   -0.36801E-01   -0.36627E-01  1846   0.577E-01    0.579E-01
RMM:   3    -0.116173404934E+04   -0.49514E-02   -0.31938E-02  1836   0.200E-01    0.338E-01
RMM:   4    -0.116173532978E+04   -0.12804E-02   -0.60679E-03  1776   0.849E-02    0.205E-01
RMM:   5    -0.116173582262E+04   -0.49284E-03   -0.13269E-03  1771   0.434E-02    0.123E-01
RMM:   6    -0.116173624041E+04   -0.41779E-03   -0.49622E-04  1615   0.302E-02    0.553E-02
RMM:   7    -0.116173638916E+04   -0.14875E-03   -0.10897E-04  1790   0.156E-02    0.243E-02
RMM:   8    -0.116173638942E+04   -0.26498E-06   -0.23389E-05  1662   0.655E-03    0.188E-02
RMM:   9    -0.116173639695E+04   -0.75228E-05   -0.28204E-05  1603   0.648E-03    0.929E-03
RMM:  10    -0.116173640223E+04   -0.52803E-05   -0.52399E-06  1409   0.336E-03    0.646E-03
RMM:  11    -0.116173640183E+04    0.40048E-06   -0.17454E-06  1073   0.187E-03
   5 F= -.11617364E+04 E0= -.11617330E+04  d E =-.582395E-01  mag=     3.9079
       N       E                     dE             d eps       ncg     rms          rms(c)
DAV:   1    -0.116078618616E+04    0.95022E+00   -0.29927E+01  2144   0.174E+01    0.409E+00
RMM:   2    -0.116163243170E+04   -0.84625E+00   -0.81761E+00  1877   0.256E+00    0.261E+00
RMM:   3    -0.116173688856E+04   -0.10446E+00   -0.75109E-01  1863   0.879E-01    0.162E+00
RMM:   4    -0.116176356731E+04   -0.26679E-01   -0.10884E-01  1782   0.357E-01    0.923E-01
RMM:   5    -0.116176732105E+04   -0.37537E-02   -0.17256E-02  1838   0.156E-01    0.679E-01
RMM:   6    -0.116177408962E+04   -0.67686E-02   -0.15069E-02  1618   0.157E-01    0.205E-01
RMM:   7    -0.116177507296E+04   -0.98335E-03   -0.17683E-03  1838   0.649E-02    0.132E-01
RMM:   8    -0.116177516135E+04   -0.88385E-04   -0.52927E-04  1667   0.318E-02    0.842E-02
RMM:   9    -0.116177518858E+04   -0.27236E-04   -0.29749E-04  1661   0.218E-02    0.446E-02
RMM:  10    -0.116177520830E+04   -0.19718E-04   -0.10597E-04  1721   0.135E-02    0.314E-02
RMM:  11    -0.116177521603E+04   -0.77284E-05   -0.23810E-05  1746   0.688E-03    0.223E-02
RMM:  12    -0.116177523088E+04   -0.14851E-04   -0.28714E-05  1612   0.676E-03    0.182E-02
RMM:  13    -0.116177523742E+04   -0.65362E-05   -0.10486E-05  1572   0.425E-03    0.132E-02
RMM:  14    -0.116177524770E+04   -0.10285E-04   -0.92636E-06  1260   0.347E-03    0.113E-02
RMM:  15    -0.116177525589E+04   -0.81881E-05   -0.94782E-06  1275   0.319E-03    0.106E-02
RMM:  16    -0.116177526360E+04   -0.77056E-05   -0.15166E-05  1298   0.377E-03    0.834E-03
RMM:  17    -0.116177527049E+04   -0.68973E-05   -0.21729E-05  1381   0.438E-03    0.820E-03
RMM:  18    -0.116177527765E+04   -0.71579E-05   -0.13845E-05  1339   0.342E-03    0.629E-03
RMM:  19    -0.116177527772E+04   -0.68907E-07   -0.21931E-05  1391   0.432E-03    0.364E-03
RMM:  20    -0.116177528652E+04   -0.88006E-05   -0.17764E-06  1063   0.166E-03    0.160E-03
RMM:  21    -0.116177528829E+04   -0.17714E-05   -0.35913E-07  1012   0.968E-04    0.912E-04
RMM:  22    -0.116177528839E+04   -0.96188E-07   -0.10988E-07   820   0.521E-04
   6 F= -.11617753E+04 E0= -.11617714E+04  d E =-.388866E-01  mag=     3.8930
       N       E                     dE             d eps       ncg     rms          rms(c)
DAV:   1    -0.116174680270E+04    0.28486E-01   -0.94763E-01  2272   0.306E+00    0.708E-01
RMM:   2    -0.116177178886E+04   -0.24986E-01   -0.25025E-01  1847   0.442E-01    0.463E-01
RMM:   3    -0.116177520215E+04   -0.34133E-02   -0.20223E-02  1838   0.150E-01    0.265E-01
RMM:   4    -0.116177631491E+04   -0.11128E-02   -0.38061E-03  1774   0.630E-02    0.158E-01
RMM:   5    -0.116177671517E+04   -0.40026E-03   -0.73767E-04  1796   0.310E-02    0.989E-02
RMM:   6    -0.116177716546E+04   -0.45029E-03   -0.35294E-04  1599   0.251E-02    0.337E-02
RMM:   7    -0.116177720805E+04   -0.42591E-04   -0.47984E-05  1752   0.105E-02    0.165E-02
RMM:   8    -0.116177721034E+04   -0.22924E-05   -0.13224E-05  1583   0.469E-03    0.137E-02
RMM:   9    -0.116177721656E+04   -0.62215E-05   -0.13313E-05  1564   0.476E-03    0.565E-03
RMM:  10    -0.116177721882E+04   -0.22584E-05   -0.23999E-06  1148   0.226E-03    0.461E-03
RMM:  11    -0.116177721943E+04   -0.61312E-06   -0.59898E-07  1023   0.112E-03
   7 F= -.11617772E+04 E0= -.11617734E+04  d E =-.408176E-01  mag=     3.8955
       N       E                     dE             d eps       ncg     rms          rms(c)
DAV:   1    -0.116104861279E+04    0.72861E+00   -0.22195E+01  2208   0.149E+01    0.353E+00
RMM:   2    -0.116169180187E+04   -0.64319E+00   -0.61739E+00  1865   0.213E+00    0.229E+00
RMM:   3    -0.116177171960E+04   -0.79918E-01   -0.53151E-01  1855   0.723E-01    0.140E+00
RMM:   4    -0.116179239057E+04   -0.20671E-01   -0.78003E-02  1797   0.292E-01    0.791E-01
RMM:   5    -0.116179603677E+04   -0.36462E-02   -0.12747E-02  1912   0.125E-01    0.586E-01
RMM:   6    -0.116180226804E+04   -0.62313E-02   -0.93763E-03  1640   0.119E-01    0.162E-01
RMM:   7    -0.116180285847E+04   -0.59043E-03   -0.90700E-04  1862   0.457E-02    0.103E-01
RMM:   8    -0.116180289133E+04   -0.32865E-04   -0.30514E-04  1655   0.228E-02    0.689E-02
RMM:   9    -0.116180289146E+04   -0.12666E-06   -0.23174E-04  1683   0.184E-02    0.340E-02
RMM:  10    -0.116180291350E+04   -0.22035E-04   -0.73765E-05  1744   0.111E-02    0.209E-02
RMM:  11    -0.116180291887E+04   -0.53783E-05   -0.10959E-05  1672   0.480E-03    0.146E-02
RMM:  12    -0.116180292232E+04   -0.34483E-05   -0.16305E-05  1578   0.470E-03    0.942E-03
RMM:  13    -0.116180292352E+04   -0.11991E-05   -0.42117E-06  1302   0.262E-03    0.785E-03
RMM:  14    -0.116180292631E+04   -0.27845E-05   -0.23559E-06  1084   0.191E-03    0.658E-03
RMM:  15    -0.116180292850E+04   -0.21945E-05   -0.18640E-06  1071   0.151E-03    0.606E-03
RMM:  16    -0.116180293090E+04   -0.24009E-05   -0.26594E-06  1089   0.164E-03    0.510E-03
RMM:  17    -0.116180293155E+04   -0.65173E-06   -0.91051E-06  1209   0.287E-03
   8 F= -.11618029E+04 E0= -.11617987E+04  d E =-.257121E-01  mag=     3.8811
       N       E                     dE             d eps       ncg     rms          rms(c)
DAV:   1    -0.116178623415E+04    0.16697E-01   -0.52030E-01  2272   0.224E+00    0.535E-01
RMM:   2    -0.116180061382E+04   -0.14380E-01   -0.14292E-01  1838   0.321E-01    0.348E-01
RMM:   3    -0.116180250777E+04   -0.18939E-02   -0.11140E-02  1841   0.107E-01    0.199E-01
RMM:   4    -0.116180318327E+04   -0.67549E-03   -0.20028E-03  1784   0.440E-02    0.118E-01
RMM:   5    -0.116180340769E+04   -0.22443E-03   -0.33854E-04  1846   0.205E-02    0.775E-02
RMM:   6    -0.116180370403E+04   -0.29634E-03   -0.17849E-04  1623   0.168E-02    0.232E-02
RMM:   7    -0.116180373522E+04   -0.31187E-04   -0.20783E-05  1727   0.662E-03    0.128E-02
RMM:   8    -0.116180373390E+04    0.13140E-05   -0.59378E-06  1264   0.311E-03    0.976E-03
RMM:   9    -0.116180373879E+04   -0.48847E-05   -0.63115E-06  1386   0.324E-03    0.359E-03
RMM:  10    -0.116180373972E+04   -0.93174E-06   -0.12326E-06  1063   0.159E-03
   9 F= -.11618037E+04 E0= -.11617996E+04  d E =-.265203E-01  mag=     3.8833
       N       E                     dE             d eps       ncg     rms          rms(c)
DAV:   1    -0.116145403516E+04    0.34970E+00   -0.11066E+01  2208   0.103E+01    0.243E+00
RMM:   2    -0.116176404666E+04   -0.31001E+00   -0.29979E+00  1843   0.147E+00    0.158E+00
RMM:   3    -0.116180312718E+04   -0.39081E-01   -0.25427E-01  1844   0.507E-01    0.950E-01
RMM:   4    -0.116181395488E+04   -0.10828E-01   -0.40503E-02  1793   0.207E-01    0.551E-01
RMM:   5    -0.116181571755E+04   -0.17627E-02   -0.64380E-03  1877   0.909E-02    0.395E-01
RMM:   6    -0.116181934356E+04   -0.36260E-02   -0.42187E-03  1602   0.839E-02    0.103E-01
RMM:   7    -0.116181972708E+04   -0.38353E-03   -0.49531E-04  1873   0.340E-02    0.685E-02
RMM:   8    -0.116181971323E+04    0.13851E-04   -0.12523E-04  1664   0.157E-02    0.473E-02
RMM:   9    -0.116181972578E+04   -0.12541E-04   -0.12967E-04  1632   0.144E-02    0.214E-02
RMM:  10    -0.116181973535E+04   -0.95744E-05   -0.39938E-05  1762   0.853E-03    0.127E-02
RMM:  11    -0.116181973739E+04   -0.20353E-05   -0.58736E-06  1406   0.363E-03    0.847E-03
RMM:  12    -0.116181973842E+04   -0.10381E-05   -0.82165E-06  1512   0.345E-03    0.392E-03
RMM:  13    -0.116181973876E+04   -0.33745E-06   -0.17628E-06  1077   0.193E-03
  10 F= -.11618197E+04 E0= -.11618155E+04  d E =-.159990E-01  mag=     3.8773
       N       E                     dE             d eps       ncg     rms          rms(c)
DAV:   1    -0.116181647946E+04    0.32590E-02   -0.10847E-01  2336   0.100E+00    0.237E-01
RMM:   2    -0.116181918294E+04   -0.27035E-02   -0.28302E-02  1820   0.143E-01    0.155E-01
RMM:   3    -0.116181961848E+04   -0.43554E-03   -0.21893E-03  1822   0.488E-02    0.895E-02
RMM:   4    -0.116181976499E+04   -0.14651E-03   -0.38661E-04  1769   0.208E-02    0.525E-02
RMM:   5    -0.116181983917E+04   -0.74172E-04   -0.10798E-04  1793   0.108E-02    0.321E-02
RMM:   6    -0.116181991354E+04   -0.74378E-04   -0.37586E-05  1610   0.807E-03    0.100E-02
RMM:   7    -0.116181992370E+04   -0.10156E-04   -0.54992E-06  1246   0.350E-03    0.576E-03
RMM:   8    -0.116181992340E+04    0.29915E-06   -0.14261E-06  1072   0.153E-03
  11 F= -.11618199E+04 E0= -.11618157E+04  d E =-.161837E-01  mag=     3.8779
       N       E                     dE             d eps       ncg     rms          rms(c)
DAV:   1    -0.116158847922E+04    0.23144E+00   -0.82599E+00  2240   0.859E+00    0.198E+00
RMM:   2    -0.116179311966E+04   -0.20464E+00   -0.19953E+00  1818   0.122E+00    0.130E+00
RMM:   3    -0.116181904814E+04   -0.25928E-01   -0.16668E-01  1810   0.427E-01    0.790E-01
RMM:   4    -0.116182621535E+04   -0.71672E-02   -0.28529E-02  1781   0.177E-01    0.463E-01
RMM:   5    -0.116182740118E+04   -0.11858E-02   -0.46284E-03  1816   0.803E-02    0.321E-01
RMM:   6    -0.116182988607E+04   -0.24849E-02   -0.36820E-03  1585   0.808E-02    0.850E-02
RMM:   7    -0.116183013306E+04   -0.24699E-03   -0.42528E-04  1811   0.324E-02    0.566E-02
RMM:   8    -0.116183010694E+04    0.26123E-04   -0.97467E-05  1699   0.141E-02    0.424E-02
RMM:   9    -0.116183012060E+04   -0.13658E-04   -0.10862E-04  1597   0.136E-02    0.161E-02
RMM:  10    -0.116183013447E+04   -0.13869E-04   -0.32062E-05  1668   0.784E-03    0.932E-03
RMM:  11    -0.116183013487E+04   -0.40235E-06   -0.45054E-06  1300   0.318E-03
  12 F= -.11618301E+04 E0= -.11618258E+04  d E =-.102115E-01  mag=     3.8753
       N       E                     dE             d eps       ncg     rms          rms(c)
DAV:   1    -0.116182554009E+04    0.45944E-02   -0.16885E-01  2272   0.122E+00    0.281E-01
RMM:   2    -0.116182948101E+04   -0.39409E-02   -0.40309E-02  1802   0.173E-01    0.184E-01
RMM:   3    -0.116183002565E+04   -0.54464E-03   -0.31669E-03  1796   0.599E-02    0.109E-01
RMM:   4    -0.116183022346E+04   -0.19781E-03   -0.55608E-04  1761   0.253E-02    0.642E-02
RMM:   5    -0.116183030579E+04   -0.82332E-04   -0.15114E-04  1742   0.138E-02    0.375E-02
RMM:   6    -0.116183040135E+04   -0.95566E-04   -0.66207E-05  1596   0.109E-02    0.120E-02
RMM:   7    -0.116183041187E+04   -0.10518E-04   -0.92022E-06  1559   0.457E-03    0.683E-03
RMM:   8    -0.116183041149E+04    0.38515E-06   -0.23261E-06  1110   0.200E-03
  13 F= -.11618304E+04 E0= -.11618261E+04  d E =-.104881E-01  mag=     3.8756
       N       E                     dE             d eps       ncg     rms          rms(c)
DAV:   1    -0.116175568506E+04    0.74727E-01   -0.35110E+00  2112   0.528E+00    0.114E+00
RMM:   2    -0.116182361966E+04   -0.67935E-01   -0.66842E-01  1793   0.751E-01    0.749E-01
RMM:   3    -0.116183231595E+04   -0.86963E-02   -0.56218E-02  1793   0.268E-01    0.455E-01
RMM:   4    -0.116183472029E+04   -0.24043E-02   -0.10010E-02  1791   0.111E-01    0.271E-01
RMM:   5    -0.116183543137E+04   -0.71109E-03   -0.18170E-03  1814   0.526E-02    0.173E-01
RMM:   6    -0.116183633928E+04   -0.90790E-03   -0.11320E-03  1589   0.455E-02    0.521E-02
RMM:   7    -0.116183643764E+04   -0.98362E-04   -0.14505E-04  1714   0.190E-02    0.326E-02
RMM:   8    -0.116183642569E+04    0.11951E-04   -0.41050E-05  1674   0.883E-03    0.260E-02
RMM:   9    -0.116183643266E+04   -0.69699E-05   -0.44630E-05  1607   0.854E-03    0.993E-03
RMM:  10    -0.116183644119E+04   -0.85344E-05   -0.12623E-05  1671   0.487E-03    0.655E-03
RMM:  11    -0.116183644087E+04    0.32553E-06   -0.16635E-06  1061   0.197E-03
  14 F= -.11618364E+04 E0= -.11618321E+04  d E =-.602938E-02  mag=     3.8738
       N       E                     dE             d eps       ncg     rms          rms(c)
DAV:   1    -0.116183591991E+04    0.52128E-03   -0.25015E-02  2112   0.445E-01    0.953E-02
RMM:   2    -0.116183634762E+04   -0.42770E-03   -0.47321E-03  1780   0.632E-02    0.629E-02
RMM:   3    -0.116183641502E+04   -0.67406E-04   -0.37469E-04  1783   0.225E-02    0.376E-02
RMM:   4    -0.116183644171E+04   -0.26690E-04   -0.75335E-05  1738   0.992E-03    0.228E-02
RMM:   5    -0.116183646474E+04   -0.23031E-04   -0.21156E-05  1661   0.526E-03    0.135E-02
RMM:   6    -0.116183648659E+04   -0.21847E-04   -0.98869E-06  1491   0.413E-03    0.431E-03
RMM:   7    -0.116183648890E+04   -0.23058E-05   -0.14385E-06  1067   0.169E-03    0.248E-03
RMM:   8    -0.116183648897E+04   -0.73705E-07   -0.38265E-07   997   0.849E-04
  15 F= -.11618365E+04 E0= -.11618321E+04  d E =-.607748E-02  mag=     3.8740
       N       E                     dE             d eps       ncg     rms          rms(c)
DAV:   1    -0.116180235640E+04    0.34132E-01   -0.21469E+00  2016   0.388E+00    0.785E-01
RMM:   2    -0.116183461610E+04   -0.32260E-01   -0.32168E-01  1779   0.545E-01    0.521E-01
RMM:   3    -0.116183882545E+04   -0.42094E-02   -0.27303E-02  1787   0.198E-01    0.322E-01
RMM:   4    -0.116184005935E+04   -0.12339E-02   -0.53184E-03  1789   0.834E-02    0.195E-01
RMM:   5    -0.116184048132E+04   -0.42197E-03   -0.11355E-03  1754   0.418E-02    0.118E-01
RMM:   6    -0.116184096337E+04   -0.48204E-03   -0.65865E-04  1590   0.349E-02    0.378E-02
RMM:   7    -0.116184100306E+04   -0.39699E-04   -0.93464E-05  1686   0.150E-02    0.215E-02
RMM:   8    -0.116184099890E+04    0.41659E-05   -0.26677E-05  1640   0.701E-03    0.174E-02
RMM:   9    -0.116184100974E+04   -0.10842E-04   -0.18244E-05  1595   0.573E-03    0.681E-03
RMM:  10    -0.116184101304E+04   -0.32970E-05   -0.52335E-06  1374   0.319E-03    0.445E-03
RMM:  11    -0.116184101301E+04    0.24080E-07   -0.81860E-07  1033   0.139E-03
  16 F= -.11618410E+04 E0= -.11618366E+04  d E =-.452404E-02  mag=     3.8731
       N       E                     dE             d eps       ncg     rms          rms(c)
DAV:   1    -0.116184065579E+04    0.35725E-03   -0.22407E-02  2080   0.395E-01    0.803E-02
RMM:   2    -0.116184094795E+04   -0.29216E-03   -0.33372E-03  1778   0.554E-02    0.533E-02
RMM:   3    -0.116184099744E+04   -0.49488E-04   -0.27482E-04  1776   0.202E-02    0.324E-02
RMM:   4    -0.116184102033E+04   -0.22890E-04   -0.56157E-05  1733   0.892E-03    0.199E-02
RMM:   5    -0.116184103605E+04   -0.15724E-04   -0.17612E-05  1609   0.489E-03    0.113E-02
RMM:   6    -0.116184105386E+04   -0.17811E-04   -0.80689E-06  1459   0.383E-03    0.387E-03
RMM:   7    -0.116184105565E+04   -0.17893E-05   -0.12880E-06  1066   0.162E-03    0.223E-03
RMM:   8    -0.116184105591E+04   -0.25468E-06   -0.38898E-07  1019   0.854E-04
  17 F= -.11618411E+04 E0= -.11618367E+04  d E =-.456694E-02  mag=     3.8730
       N       E                     dE             d eps       ncg     rms          rms(c)
DAV:   1    -0.116181930619E+04    0.21749E-01   -0.15925E+00  1984   0.326E+00    0.646E-01
RMM:   2    -0.116184087397E+04   -0.21568E-01   -0.21796E-01  1770   0.454E-01    0.432E-01
RMM:   3    -0.116184380261E+04   -0.29286E-02   -0.18763E-02  1775   0.167E-01    0.269E-01
RMM:   4    -0.116184461885E+04   -0.81624E-03   -0.36997E-03  1767   0.714E-02    0.164E-01
RMM:   5    -0.116184487697E+04   -0.25812E-03   -0.87061E-04  1710   0.370E-02    0.952E-02
RMM:   6    -0.116184524337E+04   -0.36641E-03   -0.49698E-04  1591   0.304E-02    0.320E-02
RMM:   7    -0.116184527888E+04   -0.35505E-04   -0.75067E-05  1676   0.131E-02    0.179E-02
RMM:   8    -0.116184527754E+04    0.13394E-05   -0.19914E-05  1602   0.616E-03    0.139E-02
RMM:   9    -0.116184528908E+04   -0.11539E-04   -0.12402E-05  1564   0.487E-03    0.498E-03
RMM:  10    -0.116184529037E+04   -0.12899E-05   -0.29339E-06  1160   0.252E-03    0.325E-03
RMM:  11    -0.116184529035E+04    0.15982E-07   -0.63775E-07  1022   0.120E-03
  18 F= -.11618453E+04 E0= -.11618409E+04  d E =-.423445E-02  mag=     3.8732
       N       E                     dE             d eps       ncg     rms          rms(c)
DAV:   1    -0.116183652605E+04    0.87643E-02   -0.58587E-01  1984   0.197E+00    0.392E-01
RMM:   2    -0.116184429462E+04   -0.77686E-02   -0.80159E-02  1768   0.275E-01    0.262E-01
RMM:   3    -0.116184538203E+04   -0.10874E-02   -0.68745E-03  1769   0.101E-01    0.163E-01
RMM:   4    -0.116184575493E+04   -0.37290E-03   -0.13172E-03  1757   0.433E-02    0.994E-02
RMM:   5    -0.116184590388E+04   -0.14895E-03   -0.37344E-04  1704   0.236E-02    0.559E-02
RMM:   6    -0.116184604639E+04   -0.14252E-03   -0.18327E-04  1590   0.185E-02    0.194E-02
RMM:   7    -0.116184606671E+04   -0.20319E-04   -0.29121E-05  1638   0.811E-03    0.108E-02
RMM:   8    -0.116184606739E+04   -0.67570E-06   -0.83034E-06  1512   0.386E-03
  19 F= -.11618461E+04 E0= -.11618417E+04  d E =-.501148E-02  mag=     3.8733
       N       E                     dE             d eps       ncg     rms          rms(c)
DAV:   1    -0.116182248784E+04    0.23579E-01   -0.18013E+00  1984   0.341E+00    0.663E-01
RMM:   2    -0.116184513148E+04   -0.22644E-01   -0.23031E-01  1760   0.476E-01    0.445E-01
RMM:   3    -0.116184816651E+04   -0.30350E-02   -0.20194E-02  1765   0.177E-01    0.281E-01
RMM:   4    -0.116184905782E+04   -0.89131E-03   -0.40790E-03  1760   0.764E-02    0.172E-01
RMM:   5    -0.116184940842E+04   -0.35060E-03   -0.10299E-03  1698   0.412E-02    0.950E-02
RMM:   6    -0.116184977889E+04   -0.37047E-03   -0.55920E-04  1588   0.323E-02    0.344E-02
RMM:   7    -0.116184979842E+04   -0.19527E-04   -0.88734E-05  1644   0.143E-02    0.185E-02
RMM:   8    -0.116184979960E+04   -0.11829E-05   -0.30522E-05  1586   0.741E-03    0.127E-02
RMM:   9    -0.116184981158E+04   -0.11971E-04   -0.11522E-05  1616   0.482E-03    0.589E-03
RMM:  10    -0.116184981245E+04   -0.87347E-06   -0.32632E-06  1198   0.263E-03
  20 F= -.11618498E+04 E0= -.11618454E+04  d E =-.374506E-02  mag=     3.8728
       N       E                     dE             d eps       ncg     rms          rms(c)
DAV:   1    -0.116184806119E+04    0.17504E-02   -0.12990E-01  2048   0.914E-01    0.178E-01
RMM:   2    -0.116184960849E+04   -0.15473E-02   -0.16590E-02  1759   0.127E-01    0.120E-01
RMM:   3    -0.116184982514E+04   -0.21665E-03   -0.14325E-03  1764   0.473E-02    0.746E-02
RMM:   4    -0.116184992134E+04   -0.96192E-04   -0.28833E-04  1747   0.211E-02    0.463E-02
RMM:   5    -0.116184996838E+04   -0.47048E-04   -0.10249E-04  1669   0.123E-02    0.245E-02
RMM:   6    -0.116185001527E+04   -0.46886E-04   -0.41516E-05  1595   0.889E-03    0.942E-03
RMM:   7    -0.116185002101E+04   -0.57347E-05   -0.73238E-06  1447   0.407E-03    0.502E-03
RMM:   8    -0.116185002139E+04   -0.38711E-06   -0.25826E-06  1118   0.207E-03
  21 F= -.11618500E+04 E0= -.11618456E+04  d E =-.395401E-02  mag=     3.8727
       N       E                     dE             d eps       ncg     rms          rms(c)
DAV:   1    -0.116183414467E+04    0.15876E-01   -0.13064E+00  1984   0.287E+00    0.547E-01
RMM:   2    -0.116184952895E+04   -0.15384E-01   -0.15747E-01  1755   0.396E-01    0.369E-01
RMM:   3    -0.116185150564E+04   -0.19767E-02   -0.13969E-02  1757   0.148E-01    0.235E-01
RMM:   4    -0.116185223510E+04   -0.72946E-03   -0.28697E-03  1746   0.646E-02    0.144E-01
RMM:   5    -0.116185253441E+04   -0.29931E-03   -0.74722E-04  1686   0.352E-02    0.776E-02
RMM:   6    -0.116185280177E+04   -0.26736E-03   -0.37916E-04  1604   0.266E-02    0.287E-02
RMM:   7    -0.116185281440E+04   -0.12636E-04   -0.63576E-05  1630   0.120E-02    0.154E-02
RMM:   8    -0.116185282000E+04   -0.55989E-05   -0.23478E-05  1568   0.649E-03    0.102E-02
RMM:   9    -0.116185282986E+04   -0.98599E-05   -0.87420E-06  1566   0.425E-03    0.466E-03
RMM:  10    -0.116185283037E+04   -0.50355E-06   -0.23258E-06  1125   0.214E-03
  22 F= -.11618528E+04 E0= -.11618484E+04  d E =-.280898E-02  mag=     3.8717
       N       E                     dE             d eps       ncg     rms          rms(c)
DAV:   1    -0.116185149229E+04    0.13376E-02   -0.10631E-01  1952   0.816E-01    0.156E-01
RMM:   2    -0.116185268717E+04   -0.11949E-02   -0.12832E-02  1751   0.113E-01    0.105E-01
RMM:   3    -0.116185286290E+04   -0.17573E-03   -0.11252E-03  1756   0.422E-02    0.662E-02
RMM:   4    -0.116185292661E+04   -0.63712E-04   -0.22681E-04  1732   0.188E-02    0.412E-02
RMM:   5    -0.116185296332E+04   -0.36703E-04   -0.81211E-05  1663   0.108E-02    0.220E-02
RMM:   6    -0.116185300277E+04   -0.39458E-04   -0.31941E-05  1597   0.778E-03    0.825E-03
RMM:   7    -0.116185301003E+04   -0.72539E-05   -0.55946E-06  1335   0.349E-03    0.438E-03
RMM:   8    -0.116185301032E+04   -0.29547E-06   -0.17282E-06  1073   0.175E-03
  23 F= -.11618530E+04 E0= -.11618486E+04  d E =-.298893E-02  mag=     3.8715
       N       E                     dE             d eps       ncg     rms          rms(c)
DAV:   1    -0.116184038753E+04    0.12622E-01   -0.12243E+00  1952   0.269E+00    0.495E-01
RMM:   2    -0.116185286126E+04   -0.12474E-01   -0.12924E-01  1744   0.371E-01    0.339E-01
RMM:   3    -0.116185455136E+04   -0.16901E-02   -0.11860E-02  1756   0.140E-01    0.221E-01
RMM:   4    -0.116185503704E+04   -0.48568E-03   -0.24948E-03  1735   0.618E-02    0.137E-01
RMM:   5    -0.116185524930E+04   -0.21226E-03   -0.73224E-04  1659   0.348E-02    0.736E-02
RMM:   6    -0.116185548480E+04   -0.23550E-03   -0.37729E-04  1600   0.264E-02    0.281E-02
RMM:   7    -0.116185549639E+04   -0.11592E-04   -0.59408E-05  1628   0.120E-02    0.153E-02
RMM:   8    -0.116185549722E+04   -0.83312E-06   -0.25584E-05  1550   0.668E-03    0.100E-02
RMM:   9    -0.116185550772E+04   -0.10497E-04   -0.78006E-06  1559   0.403E-03    0.485E-03
RMM:  10    -0.116185550857E+04   -0.85464E-06   -0.25866E-06  1158   0.225E-03
  24 F= -.11618555E+04 E0= -.11618511E+04  d E =-.249825E-02  mag=     3.8720
