       N       E                     dE             d eps       ncg     rms          rms(c)
DAV:   1     0.486707020527E+04    0.48671E+04   -0.17325E+05  1872   0.911E+02
DAV:   2    -0.676069328810E+02   -0.49347E+04   -0.45088E+04  2520   0.206E+02
DAV:   3    -0.119610949174E+04   -0.11285E+04   -0.11239E+04  2088   0.109E+02
DAV:   4    -0.124185829991E+04   -0.45749E+02   -0.45530E+02  2016   0.288E+01
DAV:   5    -0.124304785537E+04   -0.11896E+01   -0.11875E+01  2376   0.428E+00    0.665E+01
RMM:   6    -0.122940327269E+04    0.13645E+02   -0.86382E+00  1586   0.319E+00    0.542E+01
RMM:   7    -0.118718144940E+04    0.42222E+02   -0.80170E+01  1588   0.970E+00    0.300E+01
RMM:   8    -0.117839226936E+04    0.87892E+01   -0.34971E+01  1584   0.661E+00    0.166E+01
RMM:   9    -0.117877892108E+04   -0.38665E+00   -0.13664E+01  1586   0.418E+00    0.111E+01
RMM:  10    -0.117807565973E+04    0.70326E+00   -0.56626E+00  1605   0.188E+00    0.710E+00
RMM:  11    -0.117747788645E+04    0.59777E+00   -0.11620E+00  1589   0.768E-01    0.354E+00
RMM:  12    -0.117715740434E+04    0.32048E+00   -0.15435E+00  1584   0.130E+00    0.214E+00
RMM:  13    -0.117706775220E+04    0.89652E-01   -0.12647E-01  1600   0.367E-01    0.815E-01
RMM:  14    -0.117705546305E+04    0.12289E-01   -0.39999E-02  1604   0.161E-01    0.257E-01
RMM:  15    -0.117705666227E+04   -0.11992E-02   -0.10898E-02  1594   0.105E-01    0.223E-01
RMM:  16    -0.117705578976E+04    0.87251E-03   -0.32713E-03  1584   0.572E-02    0.159E-01
RMM:  17    -0.117705584293E+04   -0.53177E-04   -0.12449E-03  1379   0.355E-02    0.545E-02
RMM:  18    -0.117705590711E+04   -0.64173E-04   -0.11450E-04  1053   0.142E-02
   1 F= -.11843602E+04 E0= -.11843602E+04  d E =-.118436E+04  mag=    -0.0003
       N       E                     dE             d eps       ncg     rms          rms(c)
DAV:   1    -0.117705530767E+04    0.53527E-03   -0.43547E-01  1692   0.106E+00    0.264E-01
RMM:   2    -0.117705657455E+04   -0.12669E-02   -0.19887E-02  1648   0.178E-01    0.240E-01
RMM:   3    -0.117705567837E+04    0.89618E-03   -0.12677E-03  1668   0.425E-02    0.193E-01
RMM:   4    -0.117705472956E+04    0.94881E-03   -0.47518E-03  1584   0.757E-02    0.722E-02
RMM:   5    -0.117705466452E+04    0.65040E-04   -0.11007E-04  1073   0.149E-02
   2 F= -.11843591E+04 E0= -.11843591E+04  d E =0.109916E-02  mag=     0.0000
       N       E                     dE             d eps       ncg     rms          rms(c)
DAV:   1    -0.117705704046E+04   -0.23109E-02   -0.15998E-01  1836   0.637E-01    0.149E-01
RMM:   2    -0.117705728662E+04   -0.24616E-03   -0.57618E-03  1616   0.100E-01    0.135E-01
RMM:   3    -0.117705684426E+04    0.44237E-03   -0.46036E-04  1295   0.263E-02    0.101E-01
RMM:   4    -0.117705650149E+04    0.34277E-03   -0.15881E-03  1584   0.439E-02    0.399E-02
RMM:   5    -0.117705648196E+04    0.19531E-04   -0.40151E-05  1008   0.926E-03
   3 F= -.11843608E+04 E0= -.11843608E+04  d E =-.629798E-03  mag=     0.0000
