       N       E                     dE             d eps       ncg     rms          rms(c)
DAV:   1     0.482458149495E+04    0.48246E+04   -0.17065E+05  1872   0.901E+02
DAV:   2    -0.700803442938E+02   -0.48947E+04   -0.44491E+04  2520   0.205E+02
DAV:   3    -0.118853133433E+04   -0.11185E+04   -0.11138E+04  2124   0.109E+02
DAV:   4    -0.123415050884E+04   -0.45619E+02   -0.45392E+02  2052   0.296E+01
DAV:   5    -0.123545292770E+04   -0.13024E+01   -0.12996E+01  2304   0.467E+00    0.624E+01
RMM:   6    -0.122140762811E+04    0.14045E+02   -0.81864E+00  1617   0.331E+00    0.511E+01
RMM:   7    -0.118183166061E+04    0.39576E+02   -0.83363E+01  1626   0.103E+01    0.314E+01
RMM:   8    -0.117759219249E+04    0.42395E+01   -0.47909E+00  1694   0.301E+00    0.259E+01
RMM:   9    -0.117001581897E+04    0.75764E+01   -0.24060E+01  1598   0.558E+00    0.150E+01
RMM:  10    -0.117141412904E+04   -0.13983E+01   -0.10559E+01  1594   0.389E+00    0.103E+01
RMM:  11    -0.116945269774E+04    0.19614E+01   -0.30951E+00  1652   0.216E+00    0.449E+00
RMM:  12    -0.116929855537E+04    0.15414E+00   -0.49159E-01  1636   0.835E-01    0.339E+00
RMM:  13    -0.116919223456E+04    0.10632E+00   -0.42092E-01  1641   0.724E-01    0.117E+00
RMM:  14    -0.116918445050E+04    0.77841E-02   -0.85363E-02  1650   0.410E-01    0.946E-01
RMM:  15    -0.116918490423E+04   -0.45373E-03   -0.24733E-02  1686   0.174E-01    0.443E-01
RMM:  16    -0.116918331416E+04    0.15901E-02   -0.24617E-03  1696   0.715E-02    0.315E-01
RMM:  17    -0.116918274392E+04    0.57024E-03   -0.18198E-03  1608   0.470E-02    0.173E-01
RMM:  18    -0.116918278809E+04   -0.44174E-04   -0.11723E-03  1553   0.426E-02    0.703E-02
RMM:  19    -0.116918294172E+04   -0.15363E-03   -0.54149E-04  1328   0.290E-02    0.574E-02
RMM:  20    -0.116918297278E+04   -0.31060E-04   -0.15308E-04  1093   0.200E-02
   1 F= -.11761899E+04 E0= -.11761832E+04  d E =-.117619E+04  mag=    -0.7789
       N       E                     dE             d eps       ncg     rms          rms(c)
DAV:   1    -0.116917943339E+04    0.35083E-02   -0.80089E-01  1692   0.147E+00    0.235E-01
RMM:   2    -0.116918207384E+04   -0.26404E-02   -0.33006E-02  1667   0.259E-01    0.299E-01
RMM:   3    -0.116918209420E+04   -0.20360E-04   -0.27193E-03  1756   0.778E-02    0.336E-01
RMM:   4    -0.116918208347E+04    0.10730E-04   -0.30889E-04  1179   0.229E-02
   2 F= -.11761892E+04 E0= -.11761826E+04  d E =0.743046E-03  mag=    -0.7809
       N       E                     dE             d eps       ncg     rms          rms(c)
DAV:   1    -0.116918429608E+04   -0.22019E-02   -0.21875E-01  1728   0.774E-01    0.558E-01
RMM:   2    -0.116918447196E+04   -0.17588E-03   -0.79102E-03  1644   0.129E-01    0.429E-01
RMM:   3    -0.116918410701E+04    0.36495E-03   -0.43137E-03  1750   0.717E-02    0.196E-01
RMM:   4    -0.116918419745E+04   -0.90438E-04   -0.76310E-04  1419   0.346E-02
   3 F= -.11761912E+04 E0= -.11761847E+04  d E =-.128995E-02  mag=    -0.7903
       N       E                     dE             d eps       ncg     rms          rms(c)
DAV:   1    -0.116918162342E+04    0.24836E-02   -0.36619E-01  1656   0.998E-01    0.152E-01
RMM:   2    -0.116918243630E+04   -0.81288E-03   -0.10534E-02  1592   0.158E-01    0.151E-01
RMM:   3    -0.116918234136E+04    0.94939E-04   -0.55258E-04  1323   0.420E-02
   4 F= -.11761894E+04 E0= -.11761830E+04  d E =0.174122E-02  mag=    -0.7907
       N       E                     dE             d eps       ncg     rms          rms(c)
DAV:   1    -0.116918397128E+04   -0.15350E-02   -0.16393E-01  1728   0.666E-01    0.495E-02
RMM:   2    -0.116918451056E+04   -0.53928E-03   -0.51438E-03  1592   0.109E-01    0.387E-02
RMM:   3    -0.116918451249E+04   -0.19325E-05   -0.22385E-04  1124   0.299E-02
   5 F= -.11761915E+04 E0= -.11761851E+04  d E =-.353976E-03  mag=    -0.7907
