       N       E                     dE             d eps       ncg     rms          rms(c)
DAV:   1     0.475021638123E+04    0.47502E+04   -0.17328E+05  1856   0.931E+02
DAV:   2    -0.616868123429E+02   -0.48119E+04   -0.43682E+04  2464   0.210E+02
DAV:   3    -0.118475243277E+04   -0.11231E+04   -0.11163E+04  2016   0.110E+02
DAV:   4    -0.123133464912E+04   -0.46582E+02   -0.46331E+02  1952   0.298E+01
DAV:   5    -0.123255430329E+04   -0.12197E+01   -0.12170E+01  2272   0.454E+00    0.709E+01
RMM:   6    -0.121368594145E+04    0.18868E+02   -0.21432E+01  1598   0.544E+00    0.512E+01
RMM:   7    -0.120092681480E+04    0.12759E+02   -0.88287E+00  1537   0.401E+00    0.422E+01
RMM:   8    -0.117209117617E+04    0.28836E+02   -0.44380E+01  1607   0.836E+00    0.268E+01
RMM:   9    -0.116346648476E+04    0.86247E+01   -0.22049E+01  1545   0.629E+00    0.174E+01
RMM:  10    -0.116431434303E+04   -0.84786E+00   -0.12146E+01  1536   0.465E+00    0.110E+01
RMM:  11    -0.116426716383E+04    0.47179E-01   -0.26199E+00  1569   0.252E+00    0.727E+00
RMM:  12    -0.116425152050E+04    0.15643E-01   -0.61149E-01  1723   0.108E+00    0.609E+00
RMM:  13    -0.116369847865E+04    0.55304E+00   -0.16088E+00  1543   0.161E+00    0.260E+00
RMM:  14    -0.116369889529E+04   -0.41665E-03   -0.24939E-01  1540   0.705E-01    0.121E+00
RMM:  15    -0.116371013550E+04   -0.11240E-01   -0.58984E-02  1613   0.334E-01    0.929E-01
RMM:  16    -0.116371428893E+04   -0.41534E-02   -0.14603E-02  1698   0.169E-01    0.770E-01
RMM:  17    -0.116371738102E+04   -0.30921E-02   -0.62414E-03  1661   0.106E-01    0.568E-01
RMM:  18    -0.116371980269E+04   -0.24217E-02   -0.45887E-03  1691   0.829E-02    0.366E-01
RMM:  19    -0.116372225949E+04   -0.24568E-02   -0.30288E-03  1666   0.700E-02    0.154E-01
RMM:  20    -0.116372231167E+04   -0.52183E-04   -0.71070E-04  1601   0.335E-02    0.119E-01
RMM:  21    -0.116372236573E+04   -0.54055E-04   -0.25554E-04  1765   0.175E-02    0.131E-01
RMM:  22    -0.116372231426E+04    0.51466E-04   -0.54948E-05  1713   0.961E-03    0.162E-01
RMM:  23    -0.116372245942E+04   -0.14516E-03   -0.12152E-04  1573   0.150E-02    0.727E-02
RMM:  24    -0.116372248128E+04   -0.21861E-04   -0.74656E-05  1570   0.105E-02    0.523E-02
RMM:  25    -0.116372251676E+04   -0.35479E-04   -0.50272E-05  1610   0.877E-03    0.224E-02
RMM:  26    -0.116372252484E+04   -0.80778E-05   -0.20832E-05  1588   0.520E-03    0.215E-02
RMM:  27    -0.116372252342E+04    0.14146E-05   -0.82001E-06  1486   0.335E-03    0.142E-02
RMM:  28    -0.116372252229E+04    0.11326E-05   -0.42292E-06  1221   0.256E-03    0.681E-03
RMM:  29    -0.116372252242E+04   -0.13382E-06   -0.15630E-06  1072   0.144E-03
   1 F= -.11637225E+04 E0= -.11637221E+04  d E =-.116372E+04  mag=     2.0073
       N       E                     dE             d eps       ncg     rms          rms(c)
DAV:   1    -0.116368813384E+04    0.34388E-01   -0.14241E+01  1760   0.580E+00    0.104E+00
RMM:   2    -0.116371464624E+04   -0.26512E-01   -0.31303E-01  1549   0.901E-01    0.124E+00
RMM:   3    -0.116372320852E+04   -0.85623E-02   -0.82426E-02  1742   0.365E-01    0.117E+00
RMM:   4    -0.116372349841E+04   -0.28989E-03   -0.16185E-02  1988   0.153E-01    0.121E+00
RMM:   5    -0.116372247704E+04    0.10214E-02   -0.16872E-03  1866   0.507E-02    0.122E+00
RMM:   6    -0.116371811810E+04    0.43589E-02   -0.91507E-03  1544   0.107E-01    0.138E+00
RMM:   7    -0.116371786624E+04    0.25186E-03   -0.14501E-02  1578   0.131E-01    0.166E+00
RMM:   8    -0.116374983374E+04   -0.31968E-01   -0.12692E-01  2189   0.388E-01    0.313E+00
RMM:   9    -0.116378258217E+04   -0.32748E-01   -0.30286E-02  1842   0.194E-01    0.383E+00
RMM:  10    -0.116375530851E+04    0.27274E-01   -0.12788E-02  1603   0.132E-01    0.335E+00
RMM:  11    -0.116376862752E+04   -0.13319E-01   -0.34993E-03  1575   0.787E-02    0.367E+00
RMM:  12    -0.116376779258E+04    0.83494E-03   -0.69975E-04  1714   0.325E-02    0.364E+00
RMM:  13    -0.116376750464E+04    0.28795E-03   -0.19015E-04  1994   0.144E-02    0.364E+00
RMM:  14    -0.116376665574E+04    0.84889E-03   -0.14126E-04  1584   0.139E-02    0.360E+00
RMM:  15    -0.116376936387E+04   -0.27081E-02   -0.14258E-04  1581   0.139E-02    0.364E+00
RMM:  16    -0.116376938112E+04   -0.17246E-04   -0.38947E-05  1749   0.704E-03    0.364E+00
RMM:  17    -0.116376934965E+04    0.31467E-04   -0.80358E-06  1435   0.319E-03    0.364E+00
RMM:  18    -0.116376710930E+04    0.22403E-02   -0.12054E-04  2019   0.125E-02    0.358E+00
RMM:  19    -0.116376649354E+04    0.61576E-03   -0.26546E-05  1646   0.624E-03    0.356E+00
RMM:  20    -0.116376479856E+04    0.16950E-02   -0.73101E-05  1934   0.987E-03    0.351E+00
RMM:  21    -0.116376362058E+04    0.11780E-02   -0.35069E-05  1676   0.671E-03    0.348E+00
RMM:  22    -0.116376253221E+04    0.10884E-02   -0.38189E-05  1692   0.678E-03    0.345E+00
RMM:  23    -0.116376194605E+04    0.58616E-03   -0.17213E-05  1622   0.496E-03    0.343E+00
RMM:  24    -0.116376134029E+04    0.60575E-03   -0.16110E-05  1635   0.467E-03    0.342E+00
RMM:  25    -0.116376039986E+04    0.94043E-03   -0.34788E-05  1854   0.637E-03    0.339E+00
RMM:  26    -0.116375903464E+04    0.13652E-02   -0.60981E-05  2115   0.826E-03    0.335E+00
RMM:  27    -0.116375759902E+04    0.14356E-02   -0.55686E-05  2050   0.793E-03    0.331E+00
RMM:  28    -0.116375515917E+04    0.24399E-02   -0.13130E-04  2276   0.122E-02    0.323E+00
RMM:  29    -0.116375144223E+04    0.37169E-02   -0.33596E-04  2486   0.192E-02    0.311E+00
RMM:  30    -0.116374451328E+04    0.69289E-02   -0.13095E-03  2569   0.379E-02    0.285E+00
RMM:  31    -0.116373739794E+04    0.71153E-02   -0.17797E-03  2570   0.439E-02    0.255E+00
RMM:  32    -0.116372934586E+04    0.80521E-02   -0.29151E-03  2573   0.564E-02    0.215E+00
RMM:  33    -0.116372123367E+04    0.81122E-02   -0.48302E-03  2573   0.724E-02    0.163E+00
RMM:  34    -0.116371645315E+04    0.47805E-02   -0.36191E-03  2573   0.620E-02    0.119E+00
RMM:  35    -0.116371360374E+04    0.28494E-02   -0.27341E-03  2572   0.536E-02    0.799E-01
RMM:  36    -0.116371235628E+04    0.12475E-02   -0.15945E-03  2568   0.405E-02    0.511E-01
RMM:  37    -0.116371200407E+04    0.35221E-03   -0.43573E-04  2425   0.204E-02    0.369E-01
RMM:  38    -0.116371187643E+04    0.12764E-03   -0.10826E-04  2104   0.101E-02    0.289E-01
RMM:  39    -0.116371177914E+04    0.97281E-04   -0.99929E-05  2140   0.109E-02    0.183E-01
RMM:  40    -0.116371171970E+04    0.59449E-04   -0.13785E-04  2215   0.126E-02    0.711E-02
RMM:  41    -0.116371171472E+04    0.49786E-05   -0.46435E-05  1878   0.713E-03    0.226E-02
RMM:  42    -0.116371171776E+04   -0.30440E-05   -0.82413E-06  1458   0.318E-03    0.128E-02
RMM:  43    -0.116371171839E+04   -0.62494E-06   -0.11393E-06  1043   0.154E-03
   2 F= -.11637117E+04 E0= -.11637109E+04  d E =0.108040E-01  mag=     2.0161
       N       E                     dE             d eps       ncg     rms          rms(c)
DAV:   1    -0.116373717441E+04   -0.25457E-01   -0.43595E+00  1696   0.320E+00    0.596E-01
RMM:   2    -0.116374439653E+04   -0.72221E-02   -0.88002E-02  1543   0.500E-01    0.675E-01
RMM:   3    -0.116374636661E+04   -0.19701E-02   -0.20885E-02  1677   0.199E-01    0.618E-01
RMM:   4    -0.116374616112E+04    0.20549E-03   -0.44989E-03  1873   0.853E-02    0.625E-01
RMM:   5    -0.116374507574E+04    0.10854E-02   -0.11094E-03  1551   0.448E-02    0.567E-01
RMM:   6    -0.116374420784E+04    0.86790E-03   -0.13740E-02  1790   0.130E-01    0.541E-01
RMM:   7    -0.116374346361E+04    0.74423E-03   -0.19876E-03  1596   0.604E-02    0.424E-01
RMM:   8    -0.116374346746E+04   -0.38502E-05   -0.48947E-04  1824   0.286E-02    0.396E-01
RMM:   9    -0.116374322159E+04    0.24587E-03   -0.42188E-04  1570   0.236E-02    0.301E-01
RMM:  10    -0.116374319293E+04    0.28663E-04   -0.52660E-04  1613   0.260E-02    0.183E-01
RMM:  11    -0.116374317866E+04    0.14269E-04   -0.73294E-05  1656   0.125E-02    0.154E-01
RMM:  12    -0.116374316521E+04    0.13443E-04   -0.56405E-05  1582   0.934E-03    0.107E-01
RMM:  13    -0.116374315590E+04    0.93107E-05   -0.47865E-05  1602   0.831E-03    0.579E-02
RMM:  14    -0.116374315395E+04    0.19498E-05   -0.20976E-05  1597   0.544E-03    0.354E-02
RMM:  15    -0.116374315280E+04    0.11537E-05   -0.78664E-06  1444   0.340E-03    0.240E-02
RMM:  16    -0.116374315218E+04    0.61874E-06   -0.27907E-06  1137   0.216E-03
   3 F= -.11637432E+04 E0= -.11637426E+04  d E =-.206298E-01  mag=     2.0107
       N       E                     dE             d eps       ncg     rms          rms(c)
DAV:   1    -0.116374736945E+04   -0.42167E-02   -0.31870E+00  1664   0.285E+00    0.503E-01
RMM:   2    -0.116375050631E+04   -0.31369E-02   -0.47962E-02  1537   0.388E-01    0.494E-01
RMM:   3    -0.116375087653E+04   -0.37022E-03   -0.11248E-02  1660   0.163E-01    0.425E-01
RMM:   4    -0.116374940507E+04    0.14715E-02   -0.26045E-03  1652   0.760E-02    0.359E-01
RMM:   5    -0.116374777839E+04    0.16267E-02   -0.63251E-03  1596   0.926E-02    0.190E-01
RMM:   6    -0.116374770990E+04    0.68490E-04   -0.19929E-03  1576   0.596E-02    0.139E-01
RMM:   7    -0.116374751508E+04    0.19482E-03   -0.26494E-04  1613   0.262E-02    0.104E-01
RMM:   8    -0.116374745883E+04    0.56253E-04   -0.65194E-04  1593   0.274E-02    0.496E-02
RMM:   9    -0.116374746192E+04   -0.30879E-05   -0.76255E-05  1621   0.137E-02    0.417E-02
RMM:  10    -0.116374745514E+04    0.67746E-05   -0.34998E-05  1614   0.771E-03    0.339E-02
RMM:  11    -0.116374745185E+04    0.32897E-05   -0.12618E-05  1546   0.496E-03    0.219E-02
RMM:  12    -0.116374744895E+04    0.29003E-05   -0.15243E-05  1554   0.493E-03    0.122E-02
RMM:  13    -0.116374744752E+04    0.14339E-05   -0.45633E-06  1291   0.276E-03    0.876E-03
RMM:  14    -0.116374744733E+04    0.19279E-06   -0.12505E-06  1048   0.149E-03
   4 F= -.11637474E+04 E0= -.11637469E+04  d E =-.429515E-02  mag=     2.0118
       N       E                     dE             d eps       ncg     rms          rms(c)
DAV:   1    -0.116375058079E+04   -0.31333E-02   -0.49571E-01  1632   0.112E+00    0.204E-01
RMM:   2    -0.116375106993E+04   -0.48914E-03   -0.75299E-03  1538   0.154E-01    0.196E-01
RMM:   3    -0.116375111476E+04   -0.44827E-04   -0.17942E-03  1657   0.647E-02    0.165E-01
RMM:   4    -0.116375090682E+04    0.20794E-03   -0.37071E-04  1675   0.294E-02    0.141E-01
RMM:   5    -0.116375065761E+04    0.24921E-03   -0.11215E-03  1614   0.387E-02    0.705E-02
RMM:   6    -0.116375065074E+04    0.68668E-05   -0.24746E-04  1597   0.220E-02    0.535E-02
RMM:   7    -0.116375062547E+04    0.25270E-04   -0.41721E-05  1622   0.997E-03    0.392E-02
RMM:   8    -0.116375062067E+04    0.47977E-05   -0.81302E-05  1591   0.981E-03    0.191E-02
RMM:   9    -0.116375062125E+04   -0.57238E-06   -0.11661E-05  1562   0.507E-03    0.150E-02
RMM:  10    -0.116375062043E+04    0.81199E-06   -0.52035E-06  1406   0.300E-03
   5 F= -.11637506E+04 E0= -.11637500E+04  d E =-.746825E-02  mag=     2.0114
       N       E                     dE             d eps       ncg     rms          rms(c)
DAV:   1    -0.116375267519E+04   -0.20539E-02   -0.20619E+00  1760   0.266E+00    0.405E-01
RMM:   2    -0.116375642171E+04   -0.37465E-02   -0.48375E-02  1560   0.348E-01    0.343E-01
RMM:   3    -0.116375643179E+04   -0.10083E-04   -0.11036E-02  1610   0.142E-01    0.270E-01
RMM:   4    -0.116375548613E+04    0.94566E-03   -0.23891E-03  1632   0.712E-02    0.191E-01
RMM:   5    -0.116375490987E+04    0.57626E-03   -0.19968E-03  1563   0.576E-02    0.108E-01
RMM:   6    -0.116375491415E+04   -0.42752E-05   -0.87479E-04  1548   0.416E-02    0.527E-02
RMM:   7    -0.116375491298E+04    0.11649E-05   -0.14298E-04  1723   0.188E-02    0.395E-02
RMM:   8    -0.116375489379E+04    0.19192E-04   -0.70654E-05  1570   0.109E-02    0.208E-02
RMM:   9    -0.116375489399E+04   -0.19430E-06   -0.19144E-05  1696   0.598E-03    0.144E-02
RMM:  10    -0.116375489235E+04    0.16346E-05   -0.49615E-06  1402   0.304E-03    0.120E-02
RMM:  11    -0.116375489064E+04    0.17171E-05   -0.49531E-06  1407   0.292E-03    0.625E-03
RMM:  12    -0.116375489024E+04    0.39073E-06   -0.18902E-06  1057   0.185E-03
   6 F= -.11637549E+04 E0= -.11637542E+04  d E =-.426981E-02  mag=     2.0131
       N       E                     dE             d eps       ncg     rms          rms(c)
DAV:   1    -0.116375530042E+04   -0.40979E-03   -0.13399E-01  1824   0.679E-01    0.103E-01
RMM:   2    -0.116375553630E+04   -0.23588E-03   -0.31349E-03  1561   0.887E-02    0.874E-02
RMM:   3    -0.116375553575E+04    0.55093E-06   -0.68547E-04  1604   0.362E-02    0.692E-02
RMM:   4    -0.116375547625E+04    0.59503E-04   -0.18145E-04  1619   0.192E-02    0.469E-02
RMM:   5    -0.116375544731E+04    0.28941E-04   -0.12834E-04  1549   0.147E-02    0.274E-02
RMM:   6    -0.116375545101E+04   -0.37041E-05   -0.49625E-05  1552   0.102E-02    0.134E-02
RMM:   7    -0.116375545159E+04   -0.57934E-06   -0.97423E-06  1576   0.472E-03
   7 F= -.11637555E+04 E0= -.11637548E+04  d E =-.483116E-02  mag=     2.0127
       N       E                     dE             d eps       ncg     rms          rms(c)
DAV:   1    -0.116375135792E+04    0.40931E-02   -0.17903E+00  1760   0.270E+00    0.395E-01
RMM:   2    -0.116375716199E+04   -0.58041E-02   -0.61931E-02  1565   0.345E-01    0.306E-01
RMM:   3    -0.116375826744E+04   -0.11055E-02   -0.13888E-02  1615   0.137E-01    0.229E-01
RMM:   4    -0.116375812653E+04    0.14091E-03   -0.18406E-03  1718   0.594E-02    0.164E-01
RMM:   5    -0.116375793211E+04    0.19442E-03   -0.81442E-04  1604   0.372E-02    0.106E-01
RMM:   6    -0.116375792228E+04    0.98376E-05   -0.48919E-04  1557   0.308E-02    0.458E-02
RMM:   7    -0.116375794893E+04   -0.26656E-04   -0.11102E-04  1732   0.157E-02    0.281E-02
RMM:   8    -0.116375794244E+04    0.64929E-05   -0.32631E-05  1588   0.800E-03    0.152E-02
RMM:   9    -0.116375794120E+04    0.12411E-05   -0.18337E-05  1519   0.534E-03    0.917E-03
RMM:  10    -0.116375794080E+04    0.40188E-06   -0.34390E-06  1192   0.281E-03
   8 F= -.11637579E+04 E0= -.11637572E+04  d E =-.248921E-02  mag=     2.0151
       N       E                     dE             d eps       ncg     rms          rms(c)
DAV:   1    -0.116375790972E+04    0.31474E-04   -0.16217E-01  1856   0.812E-01    0.119E-01
RMM:   2    -0.116375842564E+04   -0.51591E-03   -0.56086E-03  1567   0.104E-01    0.922E-02
RMM:   3    -0.116375852855E+04   -0.10291E-03   -0.12575E-03  1615   0.414E-02    0.686E-02
RMM:   4    -0.116375851853E+04    0.10015E-04   -0.16426E-04  1716   0.179E-02    0.492E-02
RMM:   5    -0.116375850607E+04    0.12462E-04   -0.72227E-05  1598   0.111E-02    0.319E-02
RMM:   6    -0.116375851046E+04   -0.43885E-05   -0.43003E-05  1546   0.917E-03    0.137E-02
RMM:   7    -0.116375851350E+04   -0.30347E-05   -0.10036E-05  1587   0.475E-03    0.815E-03
RMM:   8    -0.116375851305E+04    0.44489E-06   -0.30289E-06  1119   0.249E-03
   9 F= -.11637585E+04 E0= -.11637578E+04  d E =-.306146E-02  mag=     2.0143
       N       E                     dE             d eps       ncg     rms          rms(c)
DAV:   1    -0.116375241528E+04    0.60982E-02   -0.12888E+00  1792   0.241E+00    0.377E-01
RMM:   2    -0.116375861796E+04   -0.62027E-02   -0.61931E-02  1567   0.307E-01    0.280E-01
RMM:   3    -0.116376017073E+04   -0.15528E-02   -0.13834E-02  1623   0.120E-01    0.199E-01
RMM:   4    -0.116376025964E+04   -0.88914E-04   -0.13364E-03  1750   0.476E-02    0.145E-01
RMM:   5    -0.116376021662E+04    0.43017E-04   -0.41399E-04  1612   0.269E-02    0.947E-02
RMM:   6    -0.116376022482E+04   -0.82013E-05   -0.22476E-04  1590   0.211E-02    0.475E-02
RMM:   7    -0.116376025676E+04   -0.31933E-04   -0.75782E-05  1669   0.129E-02    0.226E-02
RMM:   8    -0.116376025997E+04   -0.32138E-05   -0.19417E-05  1615   0.642E-03    0.140E-02
RMM:   9    -0.116376025826E+04    0.17160E-05   -0.10615E-05  1485   0.412E-03    0.845E-03
RMM:  10    -0.116376025914E+04   -0.88885E-06   -0.29578E-06  1146   0.240E-03
  10 F= -.11637603E+04 E0= -.11637595E+04  d E =-.174609E-02  mag=     2.0159
       N       E                     dE             d eps       ncg     rms          rms(c)
DAV:   1    -0.116375997682E+04    0.28144E-03   -0.94045E-02  1824   0.649E-01    0.102E-01
RMM:   2    -0.116376041934E+04   -0.44252E-03   -0.45076E-03  1566   0.834E-02    0.760E-02
RMM:   3    -0.116376053174E+04   -0.11240E-03   -0.10081E-03  1620   0.326E-02    0.538E-02
RMM:   4    -0.116376053712E+04   -0.53885E-05   -0.96193E-05  1741   0.130E-02    0.394E-02
RMM:   5    -0.116376053580E+04    0.13277E-05   -0.33388E-05  1574   0.743E-03    0.256E-02
RMM:   6    -0.116376053902E+04   -0.32253E-05   -0.16457E-05  1557   0.576E-03    0.131E-02
RMM:   7    -0.116376054217E+04   -0.31451E-05   -0.59624E-06  1520   0.366E-03    0.594E-03
RMM:   8    -0.116376054238E+04   -0.21598E-06   -0.15791E-06  1043   0.191E-03
  11 F= -.11637605E+04 E0= -.11637598E+04  d E =-.202933E-02  mag=     2.0154
       N       E                     dE             d eps       ncg     rms          rms(c)
DAV:   1    -0.116375933377E+04    0.12084E-02   -0.49957E-01  1824   0.146E+00    0.221E-01
RMM:   2    -0.116376116106E+04   -0.18273E-02   -0.19711E-02  1570   0.191E-01    0.174E-01
RMM:   3    -0.116376149557E+04   -0.33451E-03   -0.43550E-03  1614   0.759E-02    0.130E-01
RMM:   4    -0.116376142924E+04    0.66330E-04   -0.54375E-04  1694   0.331E-02    0.926E-02
RMM:   5    -0.116376135660E+04    0.72634E-04   -0.28807E-04  1566   0.222E-02    0.587E-02
RMM:   6    -0.116376135653E+04    0.76991E-07   -0.16512E-04  1556   0.180E-02    0.268E-02
RMM:   7    -0.116376136668E+04   -0.10149E-04   -0.40067E-05  1721   0.945E-03    0.180E-02
RMM:   8    -0.116376136560E+04    0.10785E-05   -0.12152E-05  1539   0.489E-03    0.967E-03
RMM:   9    -0.116376136586E+04   -0.25879E-06   -0.54955E-06  1474   0.312E-03
  12 F= -.11637614E+04 E0= -.11637606E+04  d E =-.823475E-03  mag=     2.0159
       N       E                     dE             d eps       ncg     rms          rms(c)
DAV:   1    -0.116376135384E+04    0.11760E-04   -0.41160E-02  1824   0.419E-01    0.636E-02
RMM:   2    -0.116376150037E+04   -0.14653E-03   -0.16162E-03  1568   0.547E-02    0.499E-02
RMM:   3    -0.116376152691E+04   -0.26540E-04   -0.35592E-04  1614   0.217E-02    0.370E-02
RMM:   4    -0.116376152054E+04    0.63717E-05   -0.42825E-05  1675   0.933E-03    0.265E-02
RMM:   5    -0.116376151368E+04    0.68547E-05   -0.23176E-05  1556   0.632E-03    0.167E-02
RMM:   6    -0.116376151357E+04    0.10785E-06   -0.13590E-05  1539   0.514E-03    0.741E-03
RMM:   7    -0.116376151419E+04   -0.61590E-06   -0.32428E-06  1194   0.270E-03
  13 F= -.11637615E+04 E0= -.11637608E+04  d E =-.971808E-03  mag=     2.0157
