       N       E                     dE             d eps       ncg     rms          rms(c)
DAV:   1     0.505184025111E+04    0.50518E+04   -0.17260E+05  1800   0.921E+02
DAV:   2    -0.751514591896E+01   -0.50594E+04   -0.46368E+04  2520   0.213E+02
DAV:   3    -0.118060891168E+04   -0.11731E+04   -0.11662E+04  2124   0.113E+02
DAV:   4    -0.122893353902E+04   -0.48325E+02   -0.48092E+02  2016   0.300E+01
DAV:   5    -0.123014888607E+04   -0.12153E+01   -0.12129E+01  2340   0.438E+00    0.608E+01
RMM:   6    -0.121816381382E+04    0.11985E+02   -0.71827E+00  1584   0.311E+00    0.495E+01
RMM:   7    -0.117810186269E+04    0.40062E+02   -0.62345E+01  1584   0.901E+00    0.293E+01
RMM:   8    -0.116710312249E+04    0.10999E+02   -0.46769E+01  1584   0.784E+00    0.139E+01
RMM:   9    -0.116837660174E+04   -0.12735E+01   -0.81881E+00  1587   0.337E+00    0.962E+00
RMM:  10    -0.116722670465E+04    0.11499E+01   -0.31749E+00  1584   0.207E+00    0.308E+00
RMM:  11    -0.116722832135E+04   -0.16167E-02   -0.83091E-02  1627   0.394E-01    0.175E+00
RMM:  12    -0.116718301074E+04    0.45311E-01   -0.10883E-01  1584   0.366E-01    0.950E-01
RMM:  13    -0.116716653162E+04    0.16479E-01   -0.98954E-02  1584   0.359E-01    0.415E-01
RMM:  14    -0.116716421047E+04    0.23211E-02   -0.64926E-03  1626   0.104E-01    0.223E-01
RMM:  15    -0.116716380906E+04    0.40141E-03   -0.13880E-03  1530   0.405E-02    0.152E-01
RMM:  16    -0.116716393972E+04   -0.13066E-03   -0.17871E-03  1577   0.474E-02    0.109E-01
RMM:  17    -0.116716418530E+04   -0.24558E-03   -0.40481E-04  1206   0.254E-02    0.735E-02
RMM:  18    -0.116716421857E+04   -0.33267E-04   -0.28190E-04  1182   0.222E-02
   1 F= -.11742991E+04 E0= -.11742915E+04  d E =-.117430E+04  mag=    -0.7359
       N       E                     dE             d eps       ncg     rms          rms(c)
DAV:   1    -0.116716324158E+04    0.94373E-03   -0.39249E-01  1656   0.102E+00    0.209E-01
RMM:   2    -0.116716404339E+04   -0.80181E-03   -0.13340E-02  1584   0.160E-01    0.196E-01
RMM:   3    -0.116716362242E+04    0.42097E-03   -0.70344E-04  1434   0.349E-02    0.175E-01
RMM:   4    -0.116716260419E+04    0.10182E-02   -0.43299E-03  1584   0.714E-02    0.646E-02
RMM:   5    -0.116716257499E+04    0.29204E-04   -0.90403E-05  1049   0.145E-02
   2 F= -.11742977E+04 E0= -.11742907E+04  d E =0.143587E-02  mag=    -0.7676
       N       E                     dE             d eps       ncg     rms          rms(c)
DAV:   1    -0.116716541469E+04   -0.28105E-02   -0.16194E-01  1800   0.652E-01    0.125E-01
RMM:   2    -0.116716556901E+04   -0.15432E-03   -0.40002E-03  1584   0.938E-02    0.116E-01
RMM:   3    -0.116716534967E+04    0.21933E-03   -0.19394E-04  1109   0.198E-02    0.995E-02
RMM:   4    -0.116716495223E+04    0.39744E-03   -0.17144E-03  1584   0.456E-02    0.320E-02
RMM:   5    -0.116716494502E+04    0.72135E-05   -0.29472E-05   997   0.880E-03
   3 F= -.11742999E+04 E0= -.11742931E+04  d E =-.799452E-03  mag=    -0.7710
