       N       E                     dE             d eps       ncg     rms          rms(c)
DAV:   1     0.488521837935E+04    0.48852E+04   -0.17193E+05  1872   0.907E+02
DAV:   2    -0.342984484069E+02   -0.49195E+04   -0.44697E+04  2520   0.211E+02
DAV:   3    -0.117790794597E+04   -0.11436E+04   -0.11383E+04  2088   0.112E+02
DAV:   4    -0.123410701400E+04   -0.56199E+02   -0.55852E+02  2160   0.359E+01
DAV:   5    -0.123628955796E+04   -0.21825E+01   -0.21729E+01  2304   0.602E+00    0.658E+01
RMM:   6    -0.122116214656E+04    0.15127E+02   -0.83488E+00  1842   0.364E+00    0.543E+01
RMM:   7    -0.118769284299E+04    0.33469E+02   -0.10209E+02  1875   0.122E+01    0.377E+01
RMM:   8    -0.117982853733E+04    0.78643E+01   -0.59900E+00  1882   0.773E+00    0.283E+01
RMM:   9    -0.117448118399E+04    0.53474E+01   -0.74003E+00  1786   0.304E+00    0.232E+01
RMM:  10    -0.117388047672E+04    0.60071E+00   -0.28875E+01  1898   0.703E+00    0.141E+01
RMM:  11    -0.117174674341E+04    0.21337E+01   -0.31052E+00  1889   0.473E+00    0.836E+00
RMM:  12    -0.117085233320E+04    0.89441E+00   -0.15437E+00  2025   0.136E+00    0.558E+00
RMM:  13    -0.117058096055E+04    0.27137E+00   -0.54524E-01  1855   0.102E+00    0.463E+00
RMM:  14    -0.117020469533E+04    0.37627E+00   -0.91956E-01  1775   0.122E+00    0.175E+00
RMM:  15    -0.117019949728E+04    0.51980E-02   -0.97112E-02  1750   0.990E-01    0.192E+00
RMM:  16    -0.117020457665E+04   -0.50794E-02   -0.40913E-02  1947   0.285E-01    0.146E+00
RMM:  17    -0.117019867726E+04    0.58994E-02   -0.10812E-02  1950   0.194E-01    0.130E+00
RMM:  18    -0.117019956314E+04   -0.88589E-03   -0.40723E-03  1754   0.102E-01    0.110E+00
RMM:  19    -0.117019897208E+04    0.59106E-03   -0.10742E-03  1563   0.888E-02    0.888E-01
RMM:  20    -0.117019843133E+04    0.54076E-03   -0.68967E-04  1433   0.526E-02    0.678E-01
RMM:  21    -0.117019832586E+04    0.10547E-03   -0.39987E-04  1278   0.518E-02    0.523E-01
RMM:  22    -0.117019764372E+04    0.68214E-03   -0.45069E-04  1333   0.401E-02    0.389E-01
RMM:  23    -0.117019730997E+04    0.33375E-03   -0.21335E-04  1152   0.442E-02    0.367E-01
RMM:  24    -0.117019701481E+04    0.29516E-03   -0.17213E-04  1108   0.275E-02    0.287E-01
RMM:  25    -0.117019696371E+04    0.51103E-04   -0.70187E-05  1058   0.256E-02
   1 F= -.11772942E+04 E0= -.11772942E+04  d E =-.117729E+04  mag=    -0.0340
       N       E                     dE             d eps       ncg     rms          rms(c)
DAV:   1    -0.117019657949E+04    0.43532E-03   -0.37290E-01  1800   0.101E+00    0.287E-01
RMM:   2    -0.117019705530E+04   -0.47581E-03   -0.12537E-02  1902   0.174E-01    0.317E-01
RMM:   3    -0.117019710008E+04   -0.44775E-04   -0.12594E-03  1605   0.991E-02    0.331E-01
RMM:   4    -0.117019715076E+04   -0.50682E-04   -0.19620E-04  1137   0.360E-02
   2 F= -.11772944E+04 E0= -.11772944E+04  d E =-.256614E-03  mag=    -0.0170
       N       E                     dE             d eps       ncg     rms          rms(c)
DAV:   1    -0.117019725211E+04   -0.15204E-03   -0.93919E-02  1692   0.508E-01    0.328E-01
RMM:   2    -0.117019732981E+04   -0.77700E-04   -0.27115E-03  1713   0.808E-02    0.281E-01
RMM:   3    -0.117019715882E+04    0.17099E-03   -0.10048E-03  1610   0.900E-02    0.181E-01
RMM:   4    -0.117019724749E+04   -0.88669E-04   -0.12466E-03  1560   0.520E-02    0.851E-02
RMM:   5    -0.117019722585E+04    0.21646E-04   -0.28559E-04  1226   0.693E-02
   3 F= -.11772945E+04 E0= -.11772945E+04  d E =-.294140E-03  mag=    -0.0003
