       N       E                     dE             d eps       ncg     rms          rms(c)
DAV:   1     0.488485395766E+04    0.48849E+04   -0.17187E+05  1836   0.906E+02
DAV:   2    -0.689627039503E+02   -0.49538E+04   -0.45119E+04  2520   0.206E+02
DAV:   3    -0.119251997983E+04   -0.11236E+04   -0.11190E+04  2124   0.109E+02
DAV:   4    -0.123750351259E+04   -0.44984E+02   -0.44776E+02  2052   0.288E+01
DAV:   5    -0.123869010798E+04   -0.11866E+01   -0.11846E+01  2412   0.440E+00    0.665E+01
RMM:   6    -0.122114738459E+04    0.17543E+02   -0.19548E+01  1769   0.423E+00    0.511E+01
RMM:   7    -0.119869553737E+04    0.22452E+02   -0.19623E+01  1588   0.498E+00    0.370E+01
RMM:   8    -0.117419606255E+04    0.24499E+02   -0.38617E+01  1586   0.701E+00    0.239E+01
RMM:   9    -0.117212053360E+04    0.20755E+01   -0.42959E+01  1585   0.731E+00    0.909E+00
RMM:  10    -0.117145622217E+04    0.66431E+00   -0.11874E+00  1739   0.157E+00    0.717E+00
RMM:  11    -0.117095923668E+04    0.49699E+00   -0.15120E+00  1594   0.126E+00    0.300E+00
RMM:  12    -0.117068013085E+04    0.27911E+00   -0.42712E-01  1682   0.667E-01    0.134E+00
RMM:  13    -0.117065994468E+04    0.20186E-01   -0.17239E-01  1665   0.462E-01    0.619E-01
RMM:  14    -0.117065313015E+04    0.68145E-02   -0.19900E-02  1702   0.168E-01    0.364E-01
RMM:  15    -0.117065197914E+04    0.11510E-02   -0.53013E-03  1790   0.823E-02    0.233E-01
RMM:  16    -0.117065260781E+04   -0.62867E-03   -0.32155E-03  1596   0.660E-02    0.163E-01
RMM:  17    -0.117065237549E+04    0.23231E-03   -0.11945E-03  1596   0.382E-02    0.724E-02
RMM:  18    -0.117065250824E+04   -0.13275E-03   -0.13018E-04  1102   0.169E-02    0.421E-02
RMM:  19    -0.117065253175E+04   -0.23506E-04   -0.43667E-05  1053   0.100E-02
   1 F= -.11779377E+04 E0= -.11779377E+04  d E =-.117794E+04  mag=    -0.0021
       N       E                     dE             d eps       ncg     rms          rms(c)
DAV:   1    -0.117065053149E+04    0.19768E-02   -0.37253E-01  1728   0.105E+00    0.225E-01
RMM:   2    -0.117065291106E+04   -0.23796E-02   -0.29931E-02  1874   0.219E-01    0.186E-01
RMM:   3    -0.117065261489E+04    0.29617E-03   -0.18516E-03  1610   0.596E-02    0.200E-01
RMM:   4    -0.117065256098E+04    0.53912E-04   -0.23462E-04  1131   0.169E-02
   2 F= -.11779381E+04 E0= -.11779381E+04  d E =-.351286E-03  mag=    -0.0007
       N       E                     dE             d eps       ncg     rms          rms(c)
DAV:   1    -0.117065234271E+04    0.27218E-03   -0.88162E-02  1656   0.506E-01    0.118E-01
RMM:   2    -0.117065304147E+04   -0.69875E-03   -0.67309E-03  1856   0.106E-01    0.640E-02
RMM:   3    -0.117065307180E+04   -0.30331E-04   -0.36143E-04  1168   0.277E-02
   3 F= -.11779384E+04 E0= -.11779384E+04  d E =-.707290E-03  mag=    -0.0001
