       N       E                     dE             d eps       ncg     rms          rms(c)
DAV:   1     0.451050956751E+04    0.45105E+04   -0.17647E+05  1920   0.933E+02
DAV:   2    -0.891533326085E+02   -0.45997E+04   -0.41497E+04  2400   0.206E+02
DAV:   3    -0.118335871014E+04   -0.10942E+04   -0.10890E+04  2016   0.108E+02
DAV:   4    -0.122828186215E+04   -0.44923E+02   -0.44630E+02  1952   0.290E+01
DAV:   5    -0.122942757032E+04   -0.11457E+01   -0.11420E+01  2304   0.432E+00    0.679E+01
RMM:   6    -0.121082883748E+04    0.18599E+02   -0.11584E+01  1619   0.396E+00    0.522E+01
RMM:   7    -0.118906723964E+04    0.21762E+02   -0.23342E+01  1544   0.602E+00    0.368E+01
RMM:   8    -0.116553606656E+04    0.23531E+02   -0.40390E+01  1575   0.809E+00    0.233E+01
RMM:   9    -0.116178071425E+04    0.37554E+01   -0.36561E+01  1582   0.793E+00    0.998E+00
RMM:  10    -0.116260998230E+04   -0.82927E+00   -0.39332E+00  1703   0.320E+00    0.780E+00
RMM:  11    -0.116254884132E+04    0.61141E-01   -0.16333E+00  1545   0.172E+00    0.357E+00
RMM:  12    -0.116253400200E+04    0.14839E-01   -0.55294E-01  1540   0.996E-01    0.167E+00
RMM:  13    -0.116255440166E+04   -0.20400E-01   -0.24143E-01  1594   0.636E-01    0.767E-01
RMM:  14    -0.116254830071E+04    0.61009E-02   -0.40950E-02  1613   0.302E-01    0.369E-01
RMM:  15    -0.116254922202E+04   -0.92131E-03   -0.21832E-02  1592   0.195E-01    0.211E-01
RMM:  16    -0.116254983857E+04   -0.61655E-03   -0.52867E-03  1976   0.100E-01    0.163E-01
RMM:  17    -0.116254991410E+04   -0.75533E-04   -0.82173E-04  1670   0.415E-02    0.131E-01
RMM:  18    -0.116255031507E+04   -0.40097E-03   -0.83285E-04  1557   0.383E-02    0.763E-02
RMM:  19    -0.116255040579E+04   -0.90721E-04   -0.28201E-04  1588   0.252E-02    0.525E-02
RMM:  20    -0.116255042241E+04   -0.16617E-04   -0.11003E-04  1617   0.148E-02    0.364E-02
RMM:  21    -0.116255043478E+04   -0.12370E-04   -0.75882E-05  1617   0.110E-02    0.237E-02
RMM:  22    -0.116255043681E+04   -0.20296E-05   -0.15196E-05  1558   0.554E-03    0.145E-02
RMM:  23    -0.116255043592E+04    0.89113E-06   -0.12112E-05  1504   0.440E-03    0.824E-03
RMM:  24    -0.116255043692E+04   -0.10028E-05   -0.38570E-06  1227   0.251E-03    0.528E-03
RMM:  25    -0.116255043648E+04    0.43817E-06   -0.21804E-06  1072   0.191E-03
   1 F= -.11625504E+04 E0= -.11625504E+04  d E =-.116255E+04  mag=     3.0001
       N       E                     dE             d eps       ncg     rms          rms(c)
DAV:   1    -0.116237929313E+04    0.17114E+00   -0.41881E+01  1728   0.101E+01    0.330E+00
RMM:   2    -0.116247690894E+04   -0.97616E-01   -0.10928E+00  1703   0.158E+00    0.305E+00
RMM:   3    -0.116248422941E+04   -0.73205E-02   -0.26627E-01  1840   0.696E-01    0.238E+00
RMM:   4    -0.116248541056E+04   -0.11812E-02   -0.13252E-01  1660   0.455E-01    0.104E+00
RMM:   5    -0.116248351896E+04    0.18916E-02   -0.26644E-02  1901   0.230E-01    0.429E-01
RMM:   6    -0.116248246953E+04    0.10494E-02   -0.77658E-03  1687   0.103E-01    0.281E-01
RMM:   7    -0.116248243384E+04    0.35694E-04   -0.43918E-03  1654   0.770E-02    0.137E-01
RMM:   8    -0.116248245624E+04   -0.22406E-04   -0.87578E-04  2173   0.384E-02    0.105E-01
RMM:   9    -0.116248242015E+04    0.36094E-04   -0.24542E-04  1601   0.206E-02    0.678E-02
RMM:  10    -0.116248243568E+04   -0.15532E-04   -0.33334E-04  1569   0.232E-02    0.402E-02
RMM:  11    -0.116248243330E+04    0.23822E-05   -0.69449E-05  1611   0.115E-02    0.243E-02
RMM:  12    -0.116248244272E+04   -0.94172E-05   -0.39729E-05  1589   0.799E-03    0.182E-02
RMM:  13    -0.116248244504E+04   -0.23257E-05   -0.15359E-05  1556   0.520E-03    0.127E-02
RMM:  14    -0.116248244710E+04   -0.20567E-05   -0.64501E-06  1399   0.339E-03    0.984E-03
RMM:  15    -0.116248244943E+04   -0.23299E-05   -0.37100E-06  1167   0.250E-03    0.665E-03
RMM:  16    -0.116248245066E+04   -0.12351E-05   -0.19935E-06  1082   0.179E-03    0.457E-03
RMM:  17    -0.116248245145E+04   -0.78246E-06   -0.16807E-06  1079   0.166E-03
   2 F= -.11624825E+04 E0= -.11624825E+04  d E =0.679850E-01  mag=     3.0000
       N       E                     dE             d eps       ncg     rms          rms(c)
DAV:   1    -0.116255333353E+04   -0.70883E-01   -0.15908E+01  1632   0.617E+00    0.200E+00
RMM:   2    -0.116258928916E+04   -0.35956E-01   -0.39059E-01  1732   0.988E-01    0.182E+00
RMM:   3    -0.116259241163E+04   -0.31225E-02   -0.95478E-02  1790   0.435E-01    0.143E+00
RMM:   4    -0.116259394764E+04   -0.15360E-02   -0.52233E-02  1646   0.285E-01    0.647E-01
RMM:   5    -0.116259330203E+04    0.64561E-03   -0.85634E-03  1876   0.133E-01    0.291E-01
RMM:   6    -0.116259315880E+04    0.14323E-03   -0.24619E-03  1740   0.581E-02    0.228E-01
RMM:   7    -0.116259314244E+04    0.16357E-04   -0.14197E-03  1628   0.449E-02    0.119E-01
RMM:   8    -0.116259313643E+04    0.60153E-05   -0.24847E-04  1872   0.222E-02    0.106E-01
RMM:   9    -0.116259313396E+04    0.24627E-05   -0.22472E-04  1628   0.193E-02    0.462E-02
RMM:  10    -0.116259314743E+04   -0.13464E-04   -0.10932E-04  1657   0.128E-02    0.281E-02
RMM:  11    -0.116259314032E+04    0.71084E-05   -0.29954E-05  1599   0.720E-03    0.157E-02
RMM:  12    -0.116259314035E+04   -0.30894E-07   -0.19064E-05  1605   0.517E-03    0.106E-02
RMM:  13    -0.116259314153E+04   -0.11826E-05   -0.63358E-06  1427   0.304E-03    0.841E-03
RMM:  14    -0.116259314162E+04   -0.85274E-07   -0.16795E-06  1058   0.176E-03
   3 F= -.11625931E+04 E0= -.11625931E+04  d E =-.427051E-01  mag=     3.0000
       N       E                     dE             d eps       ncg     rms          rms(c)
DAV:   1    -0.116257745654E+04    0.15685E-01   -0.58747E+00  1632   0.399E+00    0.118E+00
RMM:   2    -0.116259363902E+04   -0.16182E-01   -0.17977E-01  1720   0.659E-01    0.992E-01
RMM:   3    -0.116259489847E+04   -0.12595E-02   -0.45363E-02  1698   0.287E-01    0.709E-01
RMM:   4    -0.116259296990E+04    0.19286E-02   -0.19227E-02  1618   0.185E-01    0.289E-01
RMM:   5    -0.116259406690E+04   -0.10970E-02   -0.33388E-03  1873   0.869E-02    0.172E-01
RMM:   6    -0.116259406830E+04   -0.14046E-05   -0.91685E-04  1691   0.373E-02    0.112E-01
RMM:   7    -0.116259400329E+04    0.65008E-04   -0.43268E-04  1668   0.249E-02    0.608E-02
RMM:   8    -0.116259398031E+04    0.22983E-04   -0.30041E-04  1612   0.213E-02    0.375E-02
RMM:   9    -0.116259396641E+04    0.13903E-04   -0.64877E-05  1646   0.117E-02    0.201E-02
RMM:  10    -0.116259396367E+04    0.27337E-05   -0.24975E-05  1617   0.647E-03    0.122E-02
RMM:  11    -0.116259396336E+04    0.31378E-06   -0.93559E-06  1648   0.377E-03
   4 F= -.11625940E+04 E0= -.11625940E+04  d E =-.821741E-03  mag=     3.0000
       N       E                     dE             d eps       ncg     rms          rms(c)
DAV:   1    -0.116259984838E+04   -0.58847E-02   -0.14049E+00  1632   0.195E+00    0.576E-01
RMM:   2    -0.116260378291E+04   -0.39345E-02   -0.42505E-02  1725   0.322E-01    0.479E-01
RMM:   3    -0.116260413500E+04   -0.35210E-03   -0.10638E-02  1690   0.140E-01    0.340E-01
RMM:   4    -0.116260381193E+04    0.32307E-03   -0.40972E-03  1647   0.837E-02    0.151E-01
RMM:   5    -0.116260396731E+04   -0.15538E-03   -0.84722E-04  1895   0.415E-02    0.853E-02
RMM:   6    -0.116260394370E+04    0.23610E-04   -0.17578E-04  1707   0.181E-02    0.542E-02
RMM:   7    -0.116260393634E+04    0.73578E-05   -0.10854E-04  1628   0.126E-02    0.321E-02
RMM:   8    -0.116260393244E+04    0.38966E-05   -0.66226E-05  1688   0.990E-03    0.199E-02
RMM:   9    -0.116260392962E+04    0.28234E-05   -0.18719E-05  1597   0.605E-03    0.102E-02
RMM:  10    -0.116260393041E+04   -0.79160E-06   -0.64586E-06  1459   0.339E-03
   5 F= -.11626039E+04 E0= -.11626039E+04  d E =-.107888E-01  mag=     3.0000
       N       E                     dE             d eps       ncg     rms          rms(c)
DAV:   1    -0.116260416402E+04   -0.23440E-03   -0.18722E+00  1664   0.231E+00    0.463E-01
RMM:   2    -0.116260769059E+04   -0.35266E-02   -0.44528E-02  1690   0.356E-01    0.394E-01
RMM:   3    -0.116260711280E+04    0.57779E-03   -0.10353E-02  1685   0.153E-01    0.286E-01
RMM:   4    -0.116260604208E+04    0.10707E-02   -0.58790E-03  1589   0.103E-01    0.123E-01
RMM:   5    -0.116260617858E+04   -0.13651E-03   -0.12942E-03  1818   0.525E-02    0.863E-02
RMM:   6    -0.116260614941E+04    0.29175E-04   -0.23404E-04  1798   0.216E-02    0.605E-02
RMM:   7    -0.116260613426E+04    0.15151E-04   -0.93456E-05  1599   0.126E-02    0.358E-02
RMM:   8    -0.116260611105E+04    0.23204E-04   -0.12945E-04  1550   0.138E-02    0.176E-02
RMM:   9    -0.116260610842E+04    0.26364E-05   -0.28409E-05  1730   0.756E-03    0.101E-02
RMM:  10    -0.116260610691E+04    0.15050E-05   -0.48682E-06  1350   0.319E-03    0.749E-03
RMM:  11    -0.116260610579E+04    0.11275E-05   -0.36139E-06  1292   0.241E-03    0.422E-03
RMM:  12    -0.116260610568E+04    0.10929E-06   -0.97681E-07  1017   0.147E-03
   6 F= -.11626061E+04 E0= -.11626061E+04  d E =-.217526E-02  mag=     3.0000
       N       E                     dE             d eps       ncg     rms          rms(c)
DAV:   1    -0.116260774556E+04   -0.16398E-02   -0.31517E-01  1696   0.948E-01    0.191E-01
RMM:   2    -0.116260834328E+04   -0.59772E-03   -0.75019E-03  1691   0.146E-01    0.161E-01
RMM:   3    -0.116260825558E+04    0.87698E-04   -0.17383E-03  1681   0.628E-02    0.117E-01
RMM:   4    -0.116260808642E+04    0.16916E-03   -0.98288E-04  1590   0.424E-02    0.505E-02
RMM:   5    -0.116260810892E+04   -0.22496E-04   -0.21795E-04  1818   0.215E-02    0.353E-02
RMM:   6    -0.116260810356E+04    0.53544E-05   -0.39067E-05  1793   0.885E-03    0.249E-02
RMM:   7    -0.116260810264E+04    0.92775E-06   -0.15557E-05  1564   0.515E-03    0.147E-02
RMM:   8    -0.116260809913E+04    0.35026E-05   -0.22850E-05  1553   0.580E-03    0.720E-03
RMM:   9    -0.116260809923E+04   -0.92790E-07   -0.51411E-06  1430   0.317E-03
   7 F= -.11626081E+04 E0= -.11626081E+04  d E =-.416881E-02  mag=     3.0000
       N       E                     dE             d eps       ncg     rms          rms(c)
DAV:   1    -0.116260977795E+04   -0.16788E-02   -0.10062E+00  1536   0.168E+00    0.228E-01
RMM:   2    -0.116261102391E+04   -0.12460E-02   -0.16590E-02  1631   0.227E-01    0.208E-01
RMM:   3    -0.116261090589E+04    0.11801E-03   -0.36192E-03  1644   0.978E-02    0.173E-01
RMM:   4    -0.116261041569E+04    0.49020E-03   -0.24691E-03  1576   0.682E-02    0.684E-02
RMM:   5    -0.116261044286E+04   -0.27173E-04   -0.59511E-04  1838   0.346E-02    0.516E-02
RMM:   6    -0.116261040639E+04    0.36476E-04   -0.94820E-05  1731   0.134E-02    0.360E-02
RMM:   7    -0.116261040490E+04    0.14834E-05   -0.45494E-05  1586   0.878E-03    0.206E-02
RMM:   8    -0.116261039722E+04    0.76863E-05   -0.51176E-05  1570   0.839E-03    0.106E-02
RMM:   9    -0.116261039609E+04    0.11302E-05   -0.14394E-05  1697   0.504E-03    0.657E-03
RMM:  10    -0.116261039485E+04    0.12383E-05   -0.25946E-06  1130   0.227E-03    0.436E-03
RMM:  11    -0.116261039436E+04    0.48572E-06   -0.15646E-06  1034   0.170E-03
   8 F= -.11626104E+04 E0= -.11626104E+04  d E =-.229514E-02  mag=     3.0000
       N       E                     dE             d eps       ncg     rms          rms(c)
DAV:   1    -0.116261066139E+04   -0.26655E-03   -0.66591E-02  1664   0.432E-01    0.590E-02
RMM:   2    -0.116261074430E+04   -0.82906E-04   -0.10948E-03  1630   0.582E-02    0.537E-02
RMM:   3    -0.116261073740E+04    0.68996E-05   -0.23770E-04  1642   0.251E-02    0.446E-02
RMM:   4    -0.116261070718E+04    0.30221E-04   -0.16095E-04  1573   0.175E-02    0.175E-02
RMM:   5    -0.116261070938E+04   -0.21967E-05   -0.39560E-05  1782   0.888E-03    0.130E-02
RMM:   6    -0.116261070705E+04    0.23267E-05   -0.66916E-06  1573   0.349E-03    0.898E-03
RMM:   7    -0.116261070721E+04   -0.16508E-06   -0.29702E-06  1198   0.226E-03
   9 F= -.11626107E+04 E0= -.11626107E+04  d E =-.260799E-02  mag=     3.0000
       N       E                     dE             d eps       ncg     rms          rms(c)
DAV:   1    -0.116261218592E+04   -0.14789E-02   -0.77813E-01  1536   0.147E+00    0.172E-01
RMM:   2    -0.116261310985E+04   -0.92393E-03   -0.11608E-02  1640   0.190E-01    0.156E-01
RMM:   3    -0.116261320029E+04   -0.90440E-04   -0.27901E-03  1663   0.835E-02    0.135E-01
RMM:   4    -0.116261305526E+04    0.14503E-03   -0.12149E-03  1660   0.490E-02    0.618E-02
RMM:   5    -0.116261308533E+04   -0.30073E-04   -0.36925E-04  1775   0.262E-02    0.373E-02
RMM:   6    -0.116261306409E+04    0.21247E-04   -0.74402E-05  1697   0.116E-02    0.237E-02
RMM:   7    -0.116261306442E+04   -0.33782E-06   -0.28891E-05  1628   0.685E-03    0.135E-02
RMM:   8    -0.116261306274E+04    0.16869E-05   -0.20382E-05  1567   0.530E-03    0.834E-03
RMM:   9    -0.116261306221E+04    0.52826E-06   -0.56585E-06  1480   0.311E-03
  10 F= -.11626131E+04 E0= -.11626131E+04  d E =-.235499E-02  mag=     3.0000
       N       E                     dE             d eps       ncg     rms          rms(c)
DAV:   1    -0.116261306470E+04   -0.19613E-05   -0.12198E-03  1888   0.583E-02    0.792E-03
RMM:   2    -0.116261306619E+04   -0.14928E-05   -0.18196E-05  1656   0.756E-03    0.715E-03
RMM:   3    -0.116261306642E+04   -0.22766E-06   -0.46456E-06  1305   0.341E-03
  11 F= -.11626131E+04 E0= -.11626131E+04  d E =-.235920E-02  mag=     3.0000
       N       E                     dE             d eps       ncg     rms          rms(c)
DAV:   1    -0.116261417199E+04   -0.11058E-02   -0.66390E-01  1536   0.135E+00    0.159E-01
RMM:   2    -0.116261495480E+04   -0.78281E-03   -0.99708E-03  1649   0.175E-01    0.145E-01
RMM:   3    -0.116261504308E+04   -0.88278E-04   -0.24654E-03  1653   0.779E-02    0.124E-01
RMM:   4    -0.116261493786E+04    0.10522E-03   -0.10763E-03  1651   0.467E-02    0.561E-02
RMM:   5    -0.116261497218E+04   -0.34321E-04   -0.31093E-04  1770   0.240E-02    0.347E-02
RMM:   6    -0.116261495824E+04    0.13942E-04   -0.60204E-05  1677   0.106E-02    0.217E-02
RMM:   7    -0.116261495789E+04    0.35063E-06   -0.30544E-05  1595   0.684E-03    0.112E-02
RMM:   8    -0.116261495720E+04    0.68752E-06   -0.13403E-05  1595   0.440E-03    0.729E-03
RMM:   9    -0.116261495715E+04    0.45933E-07   -0.54850E-06  1501   0.300E-03
  12 F= -.11626150E+04 E0= -.11626150E+04  d E =-.189074E-02  mag=     3.0000
       N       E                     dE             d eps       ncg     rms          rms(c)
DAV:   1    -0.116261496657E+04   -0.93734E-05   -0.47143E-03  1728   0.114E-01    0.137E-02
RMM:   2    -0.116261497199E+04   -0.54211E-05   -0.69252E-05  1656   0.146E-02    0.124E-02
RMM:   3    -0.116261497293E+04   -0.93196E-06   -0.17617E-05  1647   0.657E-03    0.106E-02
RMM:   4    -0.116261497317E+04   -0.23993E-06   -0.77640E-06  1579   0.399E-03
  13 F= -.11626150E+04 E0= -.11626150E+04  d E =-.190675E-02  mag=     3.0000
       N       E                     dE             d eps       ncg     rms          rms(c)
DAV:   1    -0.116261575587E+04   -0.78295E-03   -0.54222E-01  1536   0.121E+00    0.142E-01
RMM:   2    -0.116261636110E+04   -0.60523E-03   -0.81144E-03  1619   0.157E-01    0.132E-01
RMM:   3    -0.116261639022E+04   -0.29120E-04   -0.18682E-03  1626   0.697E-02    0.114E-01
RMM:   4    -0.116261624668E+04    0.14354E-03   -0.10430E-03  1601   0.454E-02    0.465E-02
RMM:   5    -0.116261627811E+04   -0.31434E-04   -0.27784E-04  1766   0.232E-02    0.315E-02
RMM:   6    -0.116261626075E+04    0.17366E-04   -0.56727E-05  1610   0.101E-02    0.191E-02
RMM:   7    -0.116261626333E+04   -0.25847E-05   -0.22726E-05  1664   0.610E-03    0.112E-02
RMM:   8    -0.116261626209E+04    0.12459E-05   -0.10009E-05  1542   0.397E-03    0.673E-03
RMM:   9    -0.116261626234E+04   -0.25253E-06   -0.65118E-06  1492   0.318E-03
  14 F= -.11626163E+04 E0= -.11626163E+04  d E =-.128917E-02  mag=     3.0000
