       N       E                     dE             d eps       ncg     rms          rms(c)
DAV:   1     0.508990507056E+04    0.50899E+04   -0.17874E+05  1872   0.937E+02
DAV:   2    -0.158833597628E+02   -0.51058E+04   -0.46932E+04  2520   0.212E+02
DAV:   3    -0.119952886291E+04   -0.11836E+04   -0.11774E+04  2088   0.113E+02
DAV:   4    -0.124820868343E+04   -0.48680E+02   -0.48373E+02  2052   0.301E+01
DAV:   5    -0.124939139287E+04   -0.11827E+01   -0.11778E+01  2340   0.423E+00    0.702E+01
RMM:   6    -0.123406120001E+04    0.15330E+02   -0.32042E+01  1584   0.545E+00    0.605E+01
RMM:   7    -0.121951121323E+04    0.14550E+02   -0.62012E+00  1584   0.288E+00    0.465E+01
RMM:   8    -0.119451189479E+04    0.24999E+02   -0.29488E+01  1584   0.637E+00    0.315E+01
RMM:   9    -0.118141057499E+04    0.13101E+02   -0.19199E+01  1584   0.511E+00    0.225E+01
RMM:  10    -0.118007481838E+04    0.13358E+01   -0.98080E+00  1584   0.362E+00    0.137E+01
RMM:  11    -0.118128193152E+04   -0.12071E+01   -0.54130E+00  1584   0.271E+00    0.755E+00
RMM:  12    -0.118080971959E+04    0.47221E+00   -0.84772E-01  1586   0.100E+00    0.448E+00
RMM:  13    -0.118043841707E+04    0.37130E+00   -0.11947E+00  1584   0.124E+00    0.163E+00
RMM:  14    -0.118035864800E+04    0.79769E-01   -0.83067E-02  1587   0.287E-01    0.887E-01
RMM:  15    -0.118035289252E+04    0.57555E-02   -0.28602E-02  1586   0.179E-01    0.522E-01
RMM:  16    -0.118035320764E+04   -0.31511E-03   -0.85200E-03  1584   0.112E-01    0.306E-01
RMM:  17    -0.118035280117E+04    0.40647E-03   -0.16268E-03  1558   0.492E-02    0.196E-01
RMM:  18    -0.118035265486E+04    0.14631E-03   -0.10653E-03  1384   0.358E-02    0.106E-01
RMM:  19    -0.118035277869E+04   -0.12382E-03   -0.44564E-04  1149   0.240E-02    0.610E-02
RMM:  20    -0.118035282042E+04   -0.41730E-04   -0.12186E-04  1039   0.150E-02
   1 F= -.11875730E+04 E0= -.11875730E+04  d E =-.118757E+04  mag=     0.9962
       N       E                     dE             d eps       ncg     rms          rms(c)
DAV:   1    -0.118034858498E+04    0.41937E-02   -0.15181E+00  1584   0.191E+00    0.701E-01
RMM:   2    -0.118035213211E+04   -0.35471E-02   -0.42707E-02  1586   0.279E-01    0.692E-01
RMM:   3    -0.118035177874E+04    0.35336E-03   -0.22502E-03  1571   0.527E-02    0.651E-01
RMM:   4    -0.118035095218E+04    0.82656E-03   -0.44219E-03  1584   0.783E-02    0.209E-01
RMM:   5    -0.118035111025E+04   -0.15806E-03   -0.69067E-04  1576   0.320E-02    0.861E-02
RMM:   6    -0.118035101514E+04    0.95105E-04   -0.13552E-04  1029   0.138E-02
   2 F= -.11875722E+04 E0= -.11875722E+04  d E =0.765583E-03  mag=     0.9997
       N       E                     dE             d eps       ncg     rms          rms(c)
DAV:   1    -0.118035369256E+04   -0.25823E-02   -0.47788E-01  1728   0.107E+00    0.401E-01
RMM:   2    -0.118035462676E+04   -0.93421E-03   -0.12360E-02  1584   0.150E-01    0.395E-01
RMM:   3    -0.118035445786E+04    0.16891E-03   -0.57023E-04  1201   0.274E-02    0.367E-01
RMM:   4    -0.118035409826E+04    0.35960E-03   -0.19992E-03  1584   0.529E-02    0.972E-02
RMM:   5    -0.118035414170E+04   -0.43445E-04   -0.14894E-04  1040   0.165E-02
   3 F= -.11875748E+04 E0= -.11875748E+04  d E =-.178195E-02  mag=     1.0000
       N       E                     dE             d eps       ncg     rms          rms(c)
DAV:   1    -0.118035419284E+04   -0.94585E-04   -0.40473E-01  1728   0.978E-01    0.311E-01
RMM:   2    -0.118035463158E+04   -0.43874E-03   -0.91923E-03  1584   0.137E-01    0.286E-01
RMM:   3    -0.118035422754E+04    0.40405E-03   -0.41762E-04  1222   0.280E-02    0.242E-01
RMM:   4    -0.118035380364E+04    0.42389E-03   -0.30217E-03  1584   0.627E-02    0.702E-02
RMM:   5    -0.118035380179E+04    0.18493E-05   -0.68616E-05  1014   0.125E-02
   4 F= -.11875746E+04 E0= -.11875746E+04  d E =0.114504E-03  mag=     1.0000
       N       E                     dE             d eps       ncg     rms          rms(c)
DAV:   1    -0.118035481986E+04   -0.10162E-02   -0.11371E-01  1656   0.519E-01    0.162E-01
RMM:   2    -0.118035487977E+04   -0.59910E-04   -0.24134E-03  1584   0.698E-02    0.150E-01
RMM:   3    -0.118035471931E+04    0.16046E-03   -0.11979E-04   999   0.156E-02    0.126E-01
RMM:   4    -0.118035456797E+04    0.15134E-03   -0.11493E-03  1582   0.384E-02    0.386E-02
RMM:   5    -0.118035456411E+04    0.38622E-05   -0.19768E-05   973   0.718E-03
   5 F= -.11875753E+04 E0= -.11875753E+04  d E =-.528453E-03  mag=     1.0000
