       N       E                     dE             d eps       ncg     rms          rms(c)
DAV:   1     0.491767844263E+04    0.49177E+04   -0.16905E+05  1800   0.904E+02
DAV:   2    -0.516090160596E+02   -0.49693E+04   -0.45287E+04  2556   0.209E+02
DAV:   3    -0.117168761387E+04   -0.11201E+04   -0.11152E+04  2160   0.109E+02
DAV:   4    -0.121647572842E+04   -0.44788E+02   -0.44585E+02  2052   0.287E+01
DAV:   5    -0.121762454275E+04   -0.11488E+01   -0.11469E+01  2376   0.423E+00    0.597E+01
RMM:   6    -0.120591372397E+04    0.11711E+02   -0.67264E+00  1584   0.301E+00    0.498E+01
RMM:   7    -0.117140663626E+04    0.34507E+02   -0.42692E+01  1584   0.747E+00    0.306E+01
RMM:   8    -0.115895039062E+04    0.12456E+02   -0.17799E+01  1584   0.482E+00    0.226E+01
RMM:   9    -0.115648342610E+04    0.24670E+01   -0.33415E+01  1584   0.650E+00    0.905E+00
RMM:  10    -0.115625759534E+04    0.22583E+00   -0.10091E+00  1627   0.132E+00    0.517E+00
RMM:  11    -0.115570757328E+04    0.55002E+00   -0.12091E+00  1584   0.117E+00    0.216E+00
RMM:  12    -0.115561336675E+04    0.94207E-01   -0.29538E-01  1584   0.599E-01    0.931E-01
RMM:  13    -0.115561160004E+04    0.17667E-02   -0.11812E-01  1584   0.396E-01    0.791E-01
RMM:  14    -0.115559099641E+04    0.20604E-01   -0.43019E-02  1584   0.218E-01    0.261E-01
RMM:  15    -0.115559001800E+04    0.97841E-03   -0.65026E-03  1596   0.769E-02    0.142E-01
RMM:  16    -0.115559022178E+04   -0.20378E-03   -0.13615E-03  1570   0.410E-02    0.877E-02
RMM:  17    -0.115559032894E+04   -0.10716E-03   -0.50826E-04  1391   0.256E-02    0.458E-02
RMM:  18    -0.115559043650E+04   -0.10755E-03   -0.18283E-04  1066   0.186E-02    0.475E-02
RMM:  19    -0.115559042592E+04    0.10572E-04   -0.55688E-05  1025   0.104E-02
   1 F= -.11626705E+04 E0= -.11626705E+04  d E =-.116267E+04  mag=     0.0011
       N       E                     dE             d eps       ncg     rms          rms(c)
DAV:   1    -0.115559056527E+04   -0.12878E-03   -0.38764E-01  1692   0.982E-01    0.201E-01
RMM:   2    -0.115559096830E+04   -0.40303E-03   -0.10668E-02  1585   0.143E-01    0.192E-01
RMM:   3    -0.115559042909E+04    0.53922E-03   -0.70680E-04  1486   0.337E-02    0.166E-01
RMM:   4    -0.115558933842E+04    0.10907E-02   -0.45393E-03  1584   0.736E-02    0.548E-02
RMM:   5    -0.115558931031E+04    0.28113E-04   -0.58357E-05  1039   0.124E-02
   2 F= -.11626696E+04 E0= -.11626696E+04  d E =0.881505E-03  mag=     0.0007
       N       E                     dE             d eps       ncg     rms          rms(c)
DAV:   1    -0.115559132858E+04   -0.19902E-02   -0.13657E-01  1656   0.582E-01    0.106E-01
RMM:   2    -0.115559142791E+04   -0.99326E-04   -0.28780E-03  1584   0.783E-02    0.984E-02
RMM:   3    -0.115559124544E+04    0.18247E-03   -0.17324E-04  1089   0.184E-02    0.816E-02
RMM:   4    -0.115559096302E+04    0.28242E-03   -0.11179E-03  1584   0.371E-02    0.251E-02
RMM:   5    -0.115559096298E+04    0.45504E-07   -0.17005E-05  1001   0.663E-03
   3 F= -.11626711E+04 E0= -.11626711E+04  d E =-.630128E-03  mag=     0.0006
