       N       E                     dE             d eps       ncg     rms          rms(c)
DAV:   1     0.487198443017E+04    0.48720E+04   -0.16952E+05  1728   0.986E+02
DAV:   2    -0.404314970524E+01   -0.48760E+04   -0.44778E+04  2268   0.217E+02
DAV:   3    -0.117452431842E+04   -0.11705E+04   -0.11643E+04  1872   0.118E+02
DAV:   4    -0.122444161363E+04   -0.49917E+02   -0.49585E+02  1872   0.325E+01
DAV:   5    -0.122566583896E+04   -0.12242E+01   -0.12211E+01  2088   0.476E+00    0.642E+01
RMM:   6    -0.120964340434E+04    0.16022E+02   -0.20107E+01  1440   0.459E+00    0.501E+01
RMM:   7    -0.118888164305E+04    0.20762E+02   -0.15863E+01  1440   0.494E+00    0.373E+01
RMM:   8    -0.116313134069E+04    0.25750E+02   -0.41128E+01  1440   0.792E+00    0.233E+01
RMM:   9    -0.115937442745E+04    0.37569E+01   -0.28140E+01  1440   0.655E+00    0.113E+01
RMM:  10    -0.116047961251E+04   -0.11052E+01   -0.33635E+00  1454   0.239E+00    0.810E+00
RMM:  11    -0.115968822722E+04    0.79139E+00   -0.14752E+00  1440   0.136E+00    0.401E+00
RMM:  12    -0.115943528171E+04    0.25295E+00   -0.39366E-01  1440   0.747E-01    0.126E+00
RMM:  13    -0.115941357428E+04    0.21707E-01   -0.14460E-01  1440   0.465E-01    0.530E-01
RMM:  14    -0.115941758595E+04   -0.40117E-02   -0.10995E-02  1467   0.141E-01    0.262E-01
RMM:  15    -0.115941708020E+04    0.50575E-03   -0.57900E-03  1440   0.884E-02    0.200E-01
RMM:  16    -0.115941733638E+04   -0.25618E-03   -0.10805E-03  1420   0.467E-02    0.968E-02
RMM:  17    -0.115941743780E+04   -0.10141E-03   -0.44273E-04  1088   0.269E-02    0.468E-02
RMM:  18    -0.115941753933E+04   -0.10153E-03   -0.17539E-04   927   0.172E-02    0.294E-02
RMM:  19    -0.115941754367E+04   -0.43428E-05   -0.55375E-05   881   0.113E-02
   1 F= -.11666449E+04 E0= -.11666403E+04  d E =-.116664E+04  mag=    -0.8662
       N       E                     dE             d eps       ncg     rms          rms(c)
DAV:   1    -0.115941483147E+04    0.27079E-02   -0.13790E+00  1512   0.183E+00    0.507E-01
RMM:   2    -0.115941643120E+04   -0.15997E-02   -0.26909E-02  1441   0.245E-01    0.456E-01
RMM:   3    -0.115941571881E+04    0.71240E-03   -0.20784E-03  1511   0.560E-02    0.395E-01
RMM:   4    -0.115941446572E+04    0.12531E-02   -0.61311E-03  1440   0.943E-02    0.119E-01
RMM:   5    -0.115941447164E+04   -0.59212E-05   -0.34206E-04  1048   0.257E-02
   2 F= -.11666422E+04 E0= -.11666377E+04  d E =0.270791E-02  mag=    -0.8692
       N       E                     dE             d eps       ncg     rms          rms(c)
DAV:   1    -0.115942037587E+04   -0.59102E-02   -0.46486E-01  1476   0.106E+00    0.286E-01
RMM:   2    -0.115942070779E+04   -0.33192E-03   -0.72255E-03  1440   0.132E-01    0.253E-01
RMM:   3    -0.115942033365E+04    0.37414E-03   -0.57591E-04  1142   0.316E-02    0.207E-01
RMM:   4    -0.115941991451E+04    0.41914E-03   -0.24622E-03  1440   0.600E-02    0.615E-02
RMM:   5    -0.115941988982E+04    0.24689E-04   -0.73085E-05   888   0.132E-02
   3 F= -.11666474E+04 E0= -.11666428E+04  d E =-.249576E-02  mag=    -0.8663
       N       E                     dE             d eps       ncg     rms          rms(c)
DAV:   1    -0.115942177221E+04   -0.18577E-02   -0.54695E-01  1440   0.123E+00    0.275E-01
RMM:   2    -0.115942207364E+04   -0.30143E-03   -0.95343E-03  1440   0.161E-01    0.240E-01
RMM:   3    -0.115942126046E+04    0.81319E-03   -0.82020E-04  1420   0.397E-02    0.180E-01
RMM:   4    -0.115942058938E+04    0.67107E-03   -0.38007E-03  1440   0.710E-02    0.568E-02
RMM:   5    -0.115942053597E+04    0.53409E-04   -0.80164E-05   908   0.140E-02
   4 F= -.11666473E+04 E0= -.11666427E+04  d E =0.111862E-03  mag=    -0.8650
       N       E                     dE             d eps       ncg     rms          rms(c)
DAV:   1    -0.115942158811E+04   -0.99873E-03   -0.14531E-01  1584   0.636E-01    0.132E-01
RMM:   2    -0.115942162718E+04   -0.39064E-04   -0.23460E-03  1440   0.791E-02    0.119E-01
RMM:   3    -0.115942138885E+04    0.23832E-03   -0.20059E-04   940   0.208E-02    0.904E-02
RMM:   4    -0.115942119434E+04    0.19451E-03   -0.12401E-03  1437   0.415E-02    0.288E-02
RMM:   5    -0.115942118229E+04    0.12059E-04   -0.20363E-05   854   0.794E-03
   5 F= -.11666483E+04 E0= -.11666437E+04  d E =-.925835E-03  mag=    -0.8658
