       N       E                     dE             d eps       ncg     rms          rms(c)
DAV:   1     0.490778804520E+04    0.49078E+04   -0.17055E+05  1836   0.910E+02
DAV:   2    -0.515302737847E+02   -0.49593E+04   -0.45226E+04  2520   0.207E+02
DAV:   3    -0.118595917271E+04   -0.11344E+04   -0.11290E+04  2196   0.110E+02
DAV:   4    -0.123043967814E+04   -0.44481E+02   -0.44258E+02  2016   0.279E+01
DAV:   5    -0.123154770350E+04   -0.11080E+01   -0.11052E+01  2340   0.399E+00    0.652E+01
RMM:   6    -0.121186303014E+04    0.19685E+02   -0.21590E+01  1584   0.449E+00    0.518E+01
RMM:   7    -0.119552895698E+04    0.16334E+02   -0.12758E+01  1584   0.404E+00    0.426E+01
RMM:   8    -0.118265578542E+04    0.12873E+02   -0.10327E+01  1584   0.353E+00    0.361E+01
RMM:   9    -0.116498780834E+04    0.17668E+02   -0.26074E+01  1584   0.583E+00    0.246E+01
RMM:  10    -0.116217945664E+04    0.28084E+01   -0.14890E+01  1584   0.434E+00    0.171E+01
RMM:  11    -0.116268089502E+04   -0.50144E+00   -0.22720E+00  1597   0.180E+00    0.130E+01
RMM:  12    -0.116267101144E+04    0.98836E-02   -0.11060E+00  1598   0.101E+00    0.712E+00
RMM:  13    -0.116258920957E+04    0.81802E-01   -0.30165E-01  1586   0.459E-01    0.665E+00
RMM:  14    -0.116265406708E+04   -0.64858E-01   -0.36012E-01  1584   0.604E-01    0.830E+00
RMM:  15    -0.116252592740E+04    0.12814E+00   -0.10116E-01  1584   0.317E-01    0.597E+00
RMM:  16    -0.116234099224E+04    0.18494E+00   -0.67884E-01  1584   0.685E-01    0.474E+00
RMM:  17    -0.116236270922E+04   -0.21717E-01   -0.47789E-02  1630   0.171E-01    0.489E+00
RMM:  18    -0.116242440002E+04   -0.61691E-01   -0.35540E-02  1588   0.162E-01    0.411E+00
RMM:  19    -0.116241743669E+04    0.69633E-02   -0.34923E-02  1584   0.144E-01    0.335E+00
RMM:  20    -0.116237390410E+04    0.43533E-01   -0.15073E-01  1587   0.229E-01    0.198E+00
RMM:  21    -0.116238215784E+04   -0.82537E-02   -0.69198E-03  1480   0.768E-02    0.223E+00
RMM:  22    -0.116238148966E+04    0.66818E-03   -0.10152E-03  1152   0.286E-02    0.218E+00
RMM:  23    -0.116237121342E+04    0.10276E-01   -0.14588E-02  1457   0.838E-02    0.200E+00
RMM:  24    -0.116237366918E+04   -0.24558E-02   -0.19399E-03  1143   0.320E-02    0.192E+00
RMM:  25    -0.116232744909E+04    0.46220E-01   -0.17471E-01  1584   0.327E-01    0.109E+00
RMM:  26    -0.116236728789E+04   -0.39839E-01   -0.68436E-03  1505   0.787E-02    0.988E-01
RMM:  27    -0.116237818898E+04   -0.10901E-01   -0.72892E-03  1520   0.742E-02    0.774E-01
RMM:  28    -0.116237809376E+04    0.95212E-04   -0.26825E-03  1323   0.441E-02    0.784E-01
RMM:  29    -0.116237658202E+04    0.15117E-02   -0.20109E-04  1070   0.175E-02    0.786E-01
RMM:  30    -0.116237498391E+04    0.15981E-02   -0.11445E-04  1043   0.123E-02    0.759E-01
RMM:  31    -0.116238218315E+04   -0.71992E-02   -0.42670E-03  1268   0.531E-02    0.660E-01
RMM:  32    -0.116238751515E+04   -0.53320E-02   -0.72655E-03  1265   0.591E-02    0.677E-01
RMM:  33    -0.116239236413E+04   -0.48490E-02   -0.58654E-03  1191   0.476E-02    0.650E-01
RMM:  34    -0.116238846315E+04    0.39010E-02   -0.11517E-03  1159   0.386E-02    0.691E-01
RMM:  35    -0.116239548414E+04   -0.70210E-02   -0.11062E-02  1276   0.749E-02    0.553E-01
RMM:  36    -0.116239109364E+04    0.43905E-02   -0.56791E-02  1429   0.154E-01    0.487E-01
RMM:  37    -0.116240536925E+04   -0.14276E-01   -0.41410E-03  1257   0.507E-02    0.552E-01
RMM:  38    -0.116240665883E+04   -0.12896E-02   -0.56263E-04  1122   0.255E-02    0.448E-01
RMM:  39    -0.116240684694E+04   -0.18811E-03   -0.29021E-04  1047   0.152E-02    0.380E-01
RMM:  40    -0.116240656446E+04    0.28247E-03   -0.90111E-04  1160   0.245E-02    0.227E-01
RMM:  41    -0.116240648514E+04    0.79327E-04   -0.41068E-03  1228   0.496E-02    0.214E-01
RMM:  42    -0.116240773612E+04   -0.12510E-02   -0.63130E-04  1095   0.231E-02    0.188E-01
RMM:  43    -0.116240680880E+04    0.92732E-03   -0.34622E-03  1186   0.445E-02    0.187E-01
RMM:  44    -0.116240825036E+04   -0.14416E-02   -0.53657E-04  1065   0.212E-02    0.183E-01
RMM:  45    -0.116240855711E+04   -0.30676E-03   -0.18900E-04  1003   0.150E-02    0.110E-01
RMM:  46    -0.116240860595E+04   -0.48832E-04   -0.57902E-05   822   0.701E-03
   1 F= -.11697028E+04 E0= -.11697028E+04  d E =-.116970E+04  mag=     1.9999
       N       E                     dE             d eps       ncg     rms          rms(c)
DAV:   1    -0.116240779488E+04    0.76223E-03   -0.15530E+00  1728   0.180E+00    0.580E-01
RMM:   2    -0.116240934150E+04   -0.15466E-02   -0.32596E-02  1584   0.237E-01    0.502E-01
RMM:   3    -0.116240810360E+04    0.12379E-02   -0.28114E-03  1628   0.586E-02    0.417E-01
RMM:   4    -0.116240658273E+04    0.15209E-02   -0.37668E-03  1584   0.705E-02    0.237E-01
RMM:   5    -0.116240650044E+04    0.82289E-04   -0.19190E-03  1584   0.489E-02    0.162E-01
RMM:   6    -0.116240645505E+04    0.45394E-04   -0.20737E-04  1061   0.170E-02
   2 F= -.11697017E+04 E0= -.11697017E+04  d E =0.114562E-02  mag=     2.0000
       N       E                     dE             d eps       ncg     rms          rms(c)
DAV:   1    -0.116241168895E+04   -0.51885E-02   -0.47780E-01  1692   0.998E-01    0.321E-01
RMM:   2    -0.116241196095E+04   -0.27199E-03   -0.82959E-03  1585   0.125E-01    0.278E-01
RMM:   3    -0.116241146633E+04    0.49462E-03   -0.80488E-04  1420   0.324E-02    0.222E-01
RMM:   4    -0.116241097595E+04    0.49038E-03   -0.12814E-03  1584   0.412E-02    0.118E-01
RMM:   5    -0.116241093847E+04    0.37476E-04   -0.64545E-04  1528   0.283E-02
   3 F= -.11697056E+04 E0= -.11697056E+04  d E =-.278153E-02  mag=     2.0000
       N       E                     dE             d eps       ncg     rms          rms(c)
DAV:   1    -0.116241372361E+04   -0.27477E-02   -0.58587E-01  1728   0.117E+00    0.342E-01
RMM:   2    -0.116241376896E+04   -0.45350E-04   -0.11561E-02  1584   0.156E-01    0.287E-01
RMM:   3    -0.116241254337E+04    0.12256E-02   -0.11879E-03  1592   0.428E-02    0.216E-01
RMM:   4    -0.116241161260E+04    0.93077E-03   -0.20224E-03  1584   0.495E-02    0.127E-01
RMM:   5    -0.116241148562E+04    0.12698E-03   -0.79066E-04  1572   0.307E-02    0.952E-02
RMM:   6    -0.116241148706E+04   -0.14386E-05   -0.10793E-04  1027   0.127E-02
   4 F= -.11697060E+04 E0= -.11697060E+04  d E =-.368349E-03  mag=     2.0000
       N       E                     dE             d eps       ncg     rms          rms(c)
DAV:   1    -0.116241259425E+04   -0.11086E-02   -0.11683E-01  1728   0.521E-01    0.153E-01
RMM:   2    -0.116241259409E+04    0.15965E-06   -0.22002E-03  1584   0.675E-02    0.131E-01
RMM:   3    -0.116241238676E+04    0.20733E-03   -0.19618E-04  1046   0.183E-02    0.108E-01
RMM:   4    -0.116241221911E+04    0.16765E-03   -0.38239E-04  1227   0.230E-02    0.763E-02
RMM:   5    -0.116241217893E+04    0.40176E-04   -0.26089E-04  1078   0.193E-02
   5 F= -.11697068E+04 E0= -.11697068E+04  d E =-.113943E-02  mag=     2.0000
       N       E                     dE             d eps       ncg     rms          rms(c)
DAV:   1    -0.116241224137E+04   -0.22261E-04   -0.28404E-01  1728   0.795E-01    0.186E-01
RMM:   2    -0.116241255089E+04   -0.30952E-03   -0.56859E-03  1584   0.105E-01    0.158E-01
RMM:   3    -0.116241236134E+04    0.18954E-03   -0.33420E-04  1170   0.247E-02    0.119E-01
RMM:   4    -0.116241218045E+04    0.18089E-03   -0.66325E-04  1546   0.296E-02    0.688E-02
RMM:   5    -0.116241218686E+04   -0.64051E-05   -0.11964E-04  1025   0.136E-02
   6 F= -.11697071E+04 E0= -.11697071E+04  d E =-.313433E-03  mag=     2.0000
       N       E                     dE             d eps       ncg     rms          rms(c)
DAV:   1    -0.116241247373E+04   -0.29327E-03   -0.32942E-02  1728   0.271E-01    0.643E-02
RMM:   2    -0.116241251515E+04   -0.41421E-04   -0.63235E-04  1312   0.353E-02
   7 F= -.11697073E+04 E0= -.11697073E+04  d E =-.537485E-03  mag=     2.0000
