       N       E                     dE             d eps       ncg     rms          rms(c)
DAV:   1     0.487638578597E+04    0.48764E+04   -0.17625E+05  1944   0.922E+02
DAV:   2     0.282427288857E+02   -0.48481E+04   -0.44228E+04  2556   0.211E+02
DAV:   3    -0.119240796731E+04   -0.12207E+04   -0.12143E+04  2340   0.115E+02
DAV:   4    -0.124403741380E+04   -0.51629E+02   -0.51294E+02  2124   0.310E+01
DAV:   5    -0.124597155014E+04   -0.19341E+01   -0.19284E+01  2412   0.590E+00    0.810E+01
RMM:   6    -0.122557536098E+04    0.20396E+02   -0.10171E+01  2114   0.506E+00    0.643E+01
RMM:   7    -0.119284224857E+04    0.32733E+02   -0.47773E+01  2096   0.115E+01    0.383E+01
RMM:   8    -0.117855909067E+04    0.14283E+02   -0.28389E+01  2079   0.886E+00    0.252E+01
RMM:   9    -0.117562550318E+04    0.29336E+01   -0.13936E+01  2097   0.647E+00    0.166E+01
RMM:  10    -0.117788342466E+04   -0.22579E+01   -0.12032E+01  2111   0.469E+00    0.101E+01
RMM:  11    -0.117690166607E+04    0.98176E+00   -0.80521E-01  2043   0.278E+00    0.559E+00
RMM:  12    -0.117619710036E+04    0.70457E+00   -0.14501E+00  2068   0.151E+00    0.361E+00
RMM:  13    -0.117610585343E+04    0.91247E-01   -0.57587E-01  2072   0.207E+00    0.119E+00
RMM:  14    -0.117610927247E+04   -0.34190E-02   -0.10231E-01  2102   0.602E-01    0.928E-01
RMM:  15    -0.117610747138E+04    0.18011E-02   -0.17402E-02  2086   0.250E-01    0.598E-01
RMM:  16    -0.117610751731E+04   -0.45935E-04   -0.80067E-03  2061   0.148E-01    0.367E-01
RMM:  17    -0.117610784553E+04   -0.32822E-03   -0.87010E-04  1261   0.113E-01    0.305E-01
RMM:  18    -0.117610775147E+04    0.94056E-04   -0.48131E-04  1197   0.133E-01
   1 F= -.11833968E+04 E0= -.11833843E+04  d E =-.118340E+04  mag=    -0.3660
       N       E                     dE             d eps       ncg     rms          rms(c)
DAV:   1    -0.117609949025E+04    0.83553E-02   -0.15063E+00  2088   0.219E+00    0.135E+00
RMM:   2    -0.117610363863E+04   -0.41484E-02   -0.49541E-02  2237   0.293E-01    0.134E+00
RMM:   3    -0.117610348716E+04    0.15148E-03   -0.47792E-03  1315   0.446E-01    0.116E+00
RMM:   4    -0.117610276609E+04    0.72106E-03   -0.87432E-03  2075   0.187E-01    0.410E-01
RMM:   5    -0.117610335175E+04   -0.58565E-03   -0.26319E-03  1781   0.111E-01    0.157E-01
RMM:   6    -0.117610264776E+04    0.70398E-03   -0.32054E-04  1182   0.108E-01    0.118E-01
RMM:   7    -0.117610244130E+04    0.20646E-03   -0.23260E-04  1172   0.129E-01    0.131E-01
RMM:   8    -0.117610241555E+04    0.25750E-04   -0.15735E-04  1167   0.139E-01
   2 F= -.11833930E+04 E0= -.11833812E+04  d E =0.376701E-02  mag=    -0.4494
       N       E                     dE             d eps       ncg     rms          rms(c)
DAV:   1    -0.118039214033E+04   -0.42897E+01   -0.61019E-01  2124   0.140E+00    0.189E+00
RMM:   2    -0.117597547162E+04    0.44167E+01   -0.42814E-02  2157   0.246E-01    0.104E+00
RMM:   3    -0.117603434718E+04   -0.58876E-01   -0.33252E-03  1520   0.349E-01    0.882E-01
RMM:   4    -0.117610518888E+04   -0.70842E-01   -0.14977E-02  2023   0.174E-01    0.553E-01
RMM:   5    -0.117608713789E+04    0.18051E-01   -0.40194E-03  1893   0.125E-01    0.389E-01
RMM:   6    -0.117606558249E+04    0.21555E-01   -0.95569E-04  1357   0.117E-01    0.251E-01
RMM:   7    -0.117609197222E+04   -0.26390E-01   -0.37864E-04  1227   0.153E-01    0.157E-01
RMM:   8    -0.117610821783E+04   -0.16246E-01   -0.33488E-04  1249   0.163E-01    0.111E-01
RMM:   9    -0.117610834485E+04   -0.12702E-03   -0.47570E-04  1345   0.176E-01    0.443E-02
RMM:  10    -0.117610837558E+04   -0.30737E-04   -0.45518E-04  1331   0.116E-01
   3 F= -.11833980E+04 E0= -.11833859E+04  d E =-.118903E-02  mag=    -0.4223
       N       E                     dE             d eps       ncg     rms          rms(c)
DAV:   1    -0.117610771906E+04    0.62579E-03   -0.89052E-01  2124   0.193E+00    0.376E-01
RMM:   2    -0.117611005185E+04   -0.23328E-02   -0.28247E-02  2098   0.227E-01    0.550E-01
RMM:   3    -0.117611020935E+04   -0.15750E-03   -0.36440E-03  1310   0.428E-01    0.345E-01
RMM:   4    -0.117610991561E+04    0.29374E-03   -0.46742E-04  1214   0.118E-01    0.336E-01
RMM:   5    -0.117610965634E+04    0.25927E-03   -0.26132E-04  1228   0.132E-01    0.212E-01
RMM:   6    -0.117610958429E+04    0.72049E-04   -0.27070E-03  1790   0.173E-01    0.124E-01
RMM:   7    -0.117610966578E+04   -0.81487E-04   -0.61801E-04  1259   0.128E-01
   4 F= -.11833993E+04 E0= -.11833877E+04  d E =-.130479E-02  mag=    -0.4689
       N       E                     dE             d eps       ncg     rms          rms(c)
DAV:   1    -0.117610992460E+04   -0.34031E-03   -0.23070E-02  2160   0.334E-01    0.669E-02
RMM:   2    -0.117610992032E+04    0.42868E-05   -0.65448E-04  1461   0.361E-02
   5 F= -.11833995E+04 E0= -.11833880E+04  d E =-.155664E-02  mag=    -0.4719
       N       E                     dE             d eps       ncg     rms          rms(c)
DAV:   1    -0.117611037584E+04   -0.45124E-03   -0.66805E-01  1872   0.134E+00    0.374E-01
RMM:   2    -0.117611136904E+04   -0.99320E-03   -0.18580E-02  1936   0.219E-01    0.473E-01
RMM:   3    -0.117611212074E+04   -0.75170E-03   -0.38439E-03  1340   0.479E-01    0.407E-01
RMM:   4    -0.117611217152E+04   -0.50774E-04   -0.44081E-04  1204   0.117E-01
   6 F= -.11834010E+04 E0= -.11833895E+04  d E =-.146872E-02  mag=    -0.4724
       N       E                     dE             d eps       ncg     rms          rms(c)
DAV:   1    -0.117611179905E+04    0.32169E-03   -0.84230E-02  1908   0.505E-01    0.299E-01
RMM:   2    -0.117611161174E+04    0.18731E-03   -0.21500E-03  1952   0.785E-02    0.425E-01
RMM:   3    -0.117611193167E+04   -0.31994E-03   -0.82147E-04  1206   0.234E-01    0.304E-01
RMM:   4    -0.117611188146E+04    0.50209E-04   -0.11572E-06   995   0.620E-02
   7 F= -.11834010E+04 E0= -.11833895E+04  d E =-.145988E-02  mag=    -0.4701
       N       E                     dE             d eps       ncg     rms          rms(c)
DAV:   1    -0.117611552063E+04   -0.35890E-02   -0.16327E-01  2340   0.697E-01    0.727E-01
RMM:   2    -0.117611422320E+04    0.12974E-02   -0.24929E-03  2052   0.743E-02    0.726E-01
RMM:   3    -0.117611335046E+04    0.87275E-03   -0.50148E-04  1205   0.190E-01    0.573E-01
RMM:   4    -0.117611077286E+04    0.25776E-02   -0.97889E-03  2085   0.152E-01    0.227E-01
RMM:   5    -0.117611077782E+04   -0.49617E-05   -0.59817E-04  1242   0.915E-02
   8 F= -.11833995E+04 E0= -.11833882E+04  d E =0.146752E-02  mag=    -0.4970
       N       E                     dE             d eps       ncg     rms          rms(c)
DAV:   1    -0.117611114253E+04   -0.36967E-03   -0.11956E-02  2052   0.216E-01    0.103E-01
RMM:   2    -0.117611107502E+04    0.67503E-04   -0.25975E-04  1197   0.251E-02
   9 F= -.11833999E+04 E0= -.11833887E+04  d E =0.108404E-02  mag=    -0.4979
       N       E                     dE             d eps       ncg     rms          rms(c)
DAV:   1    -0.117611280320E+04   -0.16607E-02   -0.11065E-01  2268   0.606E-01    0.170E-01
RMM:   2    -0.117611272571E+04    0.77499E-04   -0.31542E-03  1903   0.957E-02    0.206E-01
RMM:   3    -0.117611269596E+04    0.29741E-04   -0.84509E-04  1222   0.260E-01
  10 F= -.11834018E+04 E0= -.11833906E+04  d E =-.193672E-02  mag=    -0.5033
       N       E                     dE             d eps       ncg     rms          rms(c)
DAV:   1    -0.117611184207E+04    0.88364E-03   -0.11928E-01  2016   0.645E-01    0.241E-01
RMM:   2    -0.117611164732E+04    0.19475E-03   -0.33295E-03  1965   0.984E-02    0.296E-01
RMM:   3    -0.117611166449E+04   -0.17167E-04   -0.91735E-04  1228   0.274E-01
  11 F= -.11834011E+04 E0= -.11833900E+04  d E =-.124956E-02  mag=    -0.5102
       N       E                     dE             d eps       ncg     rms          rms(c)
DAV:   1    -0.117611274782E+04   -0.11005E-02   -0.10109E-01  2340   0.652E-01    0.183E-01
RMM:   2    -0.117611259888E+04    0.14894E-03   -0.33136E-03  2000   0.937E-02    0.252E-01
RMM:   3    -0.117611272416E+04   -0.12529E-03   -0.89322E-04  1177   0.247E-01    0.173E-01
RMM:   4    -0.117611231058E+04    0.41358E-03   -0.42346E-05  1013   0.707E-02    0.139E-01
RMM:   5    -0.117611178126E+04    0.52932E-03   -0.17892E-04  1069   0.928E-02    0.127E-01
RMM:   6    -0.117611158546E+04    0.19580E-03   -0.26940E-03  1848   0.152E-01    0.716E-02
RMM:   7    -0.117611160999E+04   -0.24532E-04   -0.42525E-04  1212   0.939E-02
  12 F= -.11834011E+04 E0= -.11833902E+04  d E =-.111444E-05  mag=    -0.5204
       N       E                     dE             d eps       ncg     rms          rms(c)
DAV:   1    -0.117611163448E+04   -0.49018E-04   -0.65729E-04  1944   0.102E-01    0.632E-02
RMM:   2    -0.117611163048E+04    0.39914E-05   -0.25351E-05   962   0.841E-03
  13 F= -.11834012E+04 E0= -.11833902E+04  d E =-.246399E-04  mag=    -0.5204
