       N       E                     dE             d eps       ncg     rms          rms(c)
DAV:   1     0.482747259161E+04    0.48275E+04   -0.17583E+05  1908   0.917E+02
DAV:   2    -0.552124180416E+02   -0.48827E+04   -0.44607E+04  2520   0.209E+02
DAV:   3    -0.118705459388E+04   -0.11318E+04   -0.11269E+04  2232   0.112E+02
DAV:   4    -0.123603438054E+04   -0.48980E+02   -0.48737E+02  1980   0.302E+01
DAV:   5    -0.123800364825E+04   -0.19693E+01   -0.19657E+01  2520   0.610E+00    0.628E+01
RMM:   6    -0.122428064516E+04    0.13723E+02   -0.79019E+00  1622   0.330E+00    0.510E+01
RMM:   7    -0.118756337392E+04    0.36717E+02   -0.57399E+01  1854   0.984E+00    0.417E+01
RMM:   8    -0.118378601113E+04    0.37774E+01   -0.51947E+00  1874   0.682E+00    0.295E+01
RMM:   9    -0.117464842460E+04    0.91376E+01   -0.13792E+01  1716   0.472E+00    0.198E+01
RMM:  10    -0.117455096323E+04    0.97461E-01   -0.23769E+01  1957   0.773E+00    0.127E+01
RMM:  11    -0.117560251714E+04   -0.10516E+01   -0.21460E+00  1961   0.303E+00    0.104E+01
RMM:  12    -0.117587473524E+04   -0.27222E+00   -0.21435E+00  1857   0.181E+00    0.718E+00
RMM:  13    -0.117508542623E+04    0.78931E+00   -0.44674E-01  1832   0.139E+00    0.574E+00
RMM:  14    -0.117441939302E+04    0.66603E+00   -0.42892E-01  1828   0.832E-01    0.449E+00
RMM:  15    -0.117395534216E+04    0.46405E+00   -0.17402E-01  1865   0.710E-01    0.357E+00
RMM:  16    -0.117368082859E+04    0.27451E+00   -0.74977E-02  1954   0.269E-01    0.311E+00
RMM:  17    -0.117350448038E+04    0.17635E+00   -0.21867E-02  1787   0.158E-01    0.285E+00
RMM:  18    -0.117353618894E+04   -0.31709E-01   -0.13509E-03  1393   0.746E-02    0.288E+00
RMM:  19    -0.117315044339E+04    0.38575E+00   -0.82148E-02  1887   0.198E-01    0.224E+00
RMM:  20    -0.117254481783E+04    0.60563E+00   -0.50555E-01  2001   0.512E-01    0.100E+00
RMM:  21    -0.117253419889E+04    0.10619E-01   -0.28150E-02  1838   0.189E-01    0.954E-01
RMM:  22    -0.117251412497E+04    0.20074E-01   -0.13384E-02  1790   0.130E-01    0.747E-01
RMM:  23    -0.117253777598E+04   -0.23651E-01   -0.32409E-02  1839   0.144E-01    0.965E-01
RMM:  24    -0.117250238222E+04    0.35394E-01   -0.34442E-02  1918   0.191E-01    0.129E+00
RMM:  25    -0.117249576373E+04    0.66185E-02   -0.37395E-03  1584   0.108E-01    0.547E-01
RMM:  26    -0.117249850886E+04   -0.27451E-02   -0.11318E-03  1317   0.742E-02    0.404E-01
RMM:  27    -0.117250424022E+04   -0.57314E-02   -0.19869E-03  1670   0.667E-02    0.392E-01
RMM:  28    -0.117250270001E+04    0.15402E-02   -0.59010E-03  1877   0.115E-01    0.977E-01
RMM:  29    -0.117251392110E+04   -0.11221E-01   -0.45811E-03  1637   0.932E-02    0.222E+00
RMM:  30    -0.117250510478E+04    0.88163E-02   -0.84948E-04  1266   0.686E-02    0.223E+00
RMM:  31    -0.117250273731E+04    0.23675E-02   -0.16365E-04  1106   0.385E-02    0.221E+00
RMM:  32    -0.117250023792E+04    0.24994E-02   -0.47854E-05  1062   0.182E-02    0.209E+00
RMM:  33    -0.117250093207E+04   -0.69415E-03   -0.19374E-05  1035   0.120E-02    0.206E+00
RMM:  34    -0.117250029707E+04    0.63500E-03   -0.12231E-05   984   0.837E-03    0.201E+00
RMM:  35    -0.117249384732E+04    0.64498E-02   -0.24730E-04   964   0.115E-02    0.173E+00
RMM:  36    -0.117249310274E+04    0.74458E-03   -0.22400E-04  1000   0.137E-02    0.156E+00
RMM:  37    -0.117249590811E+04   -0.28054E-02   -0.15885E-04  1043   0.155E-02    0.142E+00
RMM:  38    -0.117249535357E+04    0.55454E-03   -0.10774E-04  1024   0.183E-02    0.138E+00
RMM:  39    -0.117249239221E+04    0.29614E-02   -0.20007E-04  1029   0.162E-02    0.128E+00
RMM:  40    -0.117249375585E+04   -0.13636E-02   -0.39028E-05   954   0.117E-02    0.127E+00
RMM:  41    -0.117249217121E+04    0.15846E-02   -0.98334E-05  1016   0.121E-02    0.118E+00
RMM:  42    -0.117249130705E+04    0.86416E-03   -0.55258E-04  1060   0.206E-02    0.116E+00
RMM:  43    -0.117249835722E+04   -0.70502E-02   -0.81841E-04  1062   0.339E-02    0.125E+00
RMM:  44    -0.117248618417E+04    0.12173E-01   -0.32915E-03  1508   0.654E-02    0.835E-01
RMM:  45    -0.117249418806E+04   -0.80039E-02   -0.70489E-04  1190   0.831E-02    0.785E-01
RMM:  46    -0.117249395311E+04    0.23495E-03   -0.78478E-04  1226   0.385E-02    0.617E-01
RMM:  47    -0.117249408905E+04   -0.13594E-03   -0.22972E-04  1049   0.387E-02    0.590E-01
RMM:  48    -0.117249149374E+04    0.25953E-02   -0.51779E-04  1118   0.293E-02    0.391E-01
RMM:  49    -0.117249351386E+04   -0.20201E-02   -0.14381E-04  1035   0.353E-02    0.353E-01
RMM:  50    -0.117249372565E+04   -0.21179E-03   -0.14470E-04  1035   0.240E-02    0.297E-01
RMM:  51    -0.117249409355E+04   -0.36790E-03   -0.67345E-04  1336   0.446E-02    0.329E-01
RMM:  52    -0.117249457893E+04   -0.48538E-03   -0.18035E-04  1086   0.497E-02    0.288E-01
RMM:  53    -0.117249454240E+04    0.36533E-04   -0.16065E-04  1066   0.282E-02
   1 F= -.11795142E+04 E0= -.11795002E+04  d E =-.117951E+04  mag=     0.0899
       N       E                     dE             d eps       ncg     rms          rms(c)
DAV:   1    -0.117249663014E+04   -0.20512E-02   -0.35836E-01  1872   0.104E+00    0.368E-01
RMM:   2    -0.117249684369E+04   -0.21354E-03   -0.18353E-02  1892   0.165E-01    0.295E-01
RMM:   3    -0.117249681764E+04    0.26052E-04   -0.15859E-03  1388   0.880E-02    0.235E-01
RMM:   4    -0.117249642666E+04    0.39097E-03   -0.66507E-04  1345   0.453E-02    0.221E-01
RMM:   5    -0.117249626275E+04    0.16392E-03   -0.21316E-04  1092   0.474E-02    0.231E-01
RMM:   6    -0.117249520139E+04    0.10614E-02   -0.99583E-04  1554   0.418E-02    0.180E-01
RMM:   7    -0.117249452766E+04    0.67373E-03   -0.10390E-03  1547   0.740E-02    0.103E-01
RMM:   8    -0.117249553529E+04   -0.10076E-02   -0.32346E-04  1222   0.411E-02    0.825E-02
RMM:   9    -0.117249553715E+04   -0.18584E-05   -0.14547E-04  1067   0.463E-02
   2 F= -.11795154E+04 E0= -.11795013E+04  d E =-.115767E-02  mag=    -0.0035
       N       E                     dE             d eps       ncg     rms          rms(c)
DAV:   1    -0.117249560541E+04   -0.70120E-04   -0.10048E-02  1800   0.177E-01    0.445E-02
RMM:   2    -0.117249567634E+04   -0.70932E-04   -0.42205E-04  1062   0.246E-02
   3 F= -.11795155E+04 E0= -.11795014E+04  d E =-.126859E-02  mag=    -0.0147
       N       E                     dE             d eps       ncg     rms          rms(c)
DAV:   1    -0.117249572208E+04   -0.11667E-03   -0.19903E-01  1800   0.785E-01    0.142E-01
RMM:   2    -0.117249635860E+04   -0.63651E-03   -0.73692E-03  1704   0.111E-01    0.988E-02
RMM:   3    -0.117249640904E+04   -0.50446E-04   -0.71580E-04  1292   0.887E-02
   4 F= -.11795162E+04 E0= -.11795021E+04  d E =-.734276E-03  mag=    -0.0288
       N       E                     dE             d eps       ncg     rms          rms(c)
DAV:   1    -0.117249633953E+04    0.19067E-04   -0.25315E-02  1872   0.280E-01    0.154E-01
RMM:   2    -0.117249647503E+04   -0.13550E-03   -0.10479E-03  1258   0.412E-02    0.143E-01
RMM:   3    -0.117249658357E+04   -0.10854E-03   -0.14375E-04  1040   0.305E-02    0.158E-01
RMM:   4    -0.117249607402E+04    0.50956E-03   -0.56822E-05  1020   0.175E-02    0.140E-01
RMM:   5    -0.117249586940E+04    0.20462E-03   -0.25930E-04  1048   0.242E-02    0.806E-02
RMM:   6    -0.117249633049E+04   -0.46110E-03   -0.13303E-04  1060   0.300E-02    0.553E-02
RMM:   7    -0.117249642754E+04   -0.97048E-04   -0.81949E-05  1016   0.262E-02
   5 F= -.11795162E+04 E0= -.11795021E+04  d E =-.753680E-03  mag=    -0.0024
