       N       E                     dE             d eps       ncg     rms          rms(c)
DAV:   1     0.466837985630E+04    0.46684E+04   -0.17767E+05  1888   0.944E+02
DAV:   2    -0.714864474556E+02   -0.47399E+04   -0.43100E+04  2368   0.211E+02
DAV:   3    -0.119347254738E+04   -0.11220E+04   -0.11162E+04  2080   0.111E+02
DAV:   4    -0.123934798764E+04   -0.45875E+02   -0.45612E+02  1888   0.291E+01
DAV:   5    -0.124050634857E+04   -0.11584E+01   -0.11556E+01  2272   0.438E+00    0.765E+01
RMM:   6    -0.122567273998E+04    0.14834E+02   -0.91532E+00  1587   0.364E+00    0.578E+01
RMM:   7    -0.119345570341E+04    0.32217E+02   -0.47120E+01  1552   0.839E+00    0.330E+01
RMM:   8    -0.117830827819E+04    0.15147E+02   -0.27770E+01  1541   0.693E+00    0.233E+01
RMM:   9    -0.117485357934E+04    0.34547E+01   -0.18134E+01  1547   0.570E+00    0.142E+01
RMM:  10    -0.117648061789E+04   -0.16270E+01   -0.60481E+00  1586   0.347E+00    0.808E+00
RMM:  11    -0.117571452826E+04    0.76609E+00   -0.11338E+00  1578   0.153E+00    0.502E+00
RMM:  12    -0.117546458454E+04    0.24994E+00   -0.70739E-01  1552   0.111E+00    0.192E+00
RMM:  13    -0.117544544177E+04    0.19143E-01   -0.23445E-01  1560   0.682E-01    0.782E-01
RMM:  14    -0.117544337979E+04    0.20620E-02   -0.51178E-02  1657   0.341E-01    0.405E-01
RMM:  15    -0.117544373874E+04   -0.35895E-03   -0.14746E-02  1686   0.181E-01    0.230E-01
RMM:  16    -0.117544367156E+04    0.67179E-04   -0.50477E-03  1577   0.102E-01    0.135E-01
RMM:  17    -0.117544384495E+04   -0.17338E-03   -0.16434E-03  1834   0.594E-02    0.830E-02
RMM:  18    -0.117544384590E+04   -0.94800E-06   -0.29408E-04  1583   0.258E-02    0.630E-02
RMM:  19    -0.117544393949E+04   -0.93595E-04   -0.52044E-04  1547   0.304E-02    0.399E-02
RMM:  20    -0.117544395238E+04   -0.12886E-04   -0.11693E-04  1579   0.156E-02    0.293E-02
RMM:  21    -0.117544397433E+04   -0.21956E-04   -0.86977E-05  1576   0.128E-02    0.221E-02
RMM:  22    -0.117544398415E+04   -0.98175E-05   -0.50829E-05  1613   0.944E-03    0.113E-02
RMM:  23    -0.117544398967E+04   -0.55229E-05   -0.21941E-05  1703   0.609E-03    0.927E-03
RMM:  24    -0.117544398986E+04   -0.18309E-06   -0.11972E-05  1576   0.470E-03    0.399E-03
RMM:  25    -0.117544399067E+04   -0.80837E-06   -0.32876E-06  1169   0.259E-03
   1 F= -.11825786E+04 E0= -.11825705E+04  d E =-.118258E+04  mag=     0.2894
       N       E                     dE             d eps       ncg     rms          rms(c)
DAV:   1    -0.117544212502E+04    0.18648E-02   -0.36192E-01  1600   0.979E-01    0.353E-01
RMM:   2    -0.117544290036E+04   -0.77534E-03   -0.92134E-03  1682   0.150E-01    0.331E-01
RMM:   3    -0.117544284676E+04    0.53601E-04   -0.19634E-03  1754   0.653E-02    0.259E-01
RMM:   4    -0.117544298139E+04   -0.13463E-03   -0.17666E-03  1572   0.545E-02    0.704E-02
RMM:   5    -0.117544282883E+04    0.15255E-03   -0.25204E-04  1607   0.237E-02    0.432E-02
RMM:   6    -0.117544281335E+04    0.15478E-04   -0.11636E-04  1617   0.127E-02    0.200E-02
RMM:   7    -0.117544280967E+04    0.36842E-05   -0.40457E-05  1781   0.784E-03    0.132E-02
RMM:   8    -0.117544280965E+04    0.25015E-07   -0.18085E-05  1645   0.516E-03    0.722E-03
RMM:   9    -0.117544280905E+04    0.60009E-06   -0.29645E-06  1166   0.252E-03
   2 F= -.11825783E+04 E0= -.11825701E+04  d E =0.320103E-03  mag=     0.2952
       N       E                     dE             d eps       ncg     rms          rms(c)
DAV:   1    -0.117544403484E+04   -0.12252E-02   -0.11152E-01  1696   0.542E-01    0.196E-01
RMM:   2    -0.117544423957E+04   -0.20473E-03   -0.25217E-03  1664   0.813E-02    0.183E-01
RMM:   3    -0.117544420939E+04    0.30180E-04   -0.54078E-04  1688   0.352E-02    0.139E-01
RMM:   4    -0.117544425045E+04   -0.41063E-04   -0.51356E-04  1567   0.294E-02    0.396E-02
RMM:   5    -0.117544420450E+04    0.45959E-04   -0.77074E-05  1605   0.129E-02    0.229E-02
RMM:   6    -0.117544419971E+04    0.47862E-05   -0.37242E-05  1600   0.709E-03    0.106E-02
RMM:   7    -0.117544419860E+04    0.11105E-05   -0.13197E-05  1718   0.435E-03    0.686E-03
RMM:   8    -0.117544419855E+04    0.52503E-07   -0.54236E-06  1474   0.281E-03
   3 F= -.11825792E+04 E0= -.11825711E+04  d E =-.591120E-03  mag=     0.2891
       N       E                     dE             d eps       ncg     rms          rms(c)
DAV:   1    -0.117544428927E+04   -0.90671E-04   -0.20092E-01  1856   0.752E-01    0.108E-01
RMM:   2    -0.117544455197E+04   -0.26270E-03   -0.34239E-03  1638   0.993E-02    0.982E-02
RMM:   3    -0.117544457874E+04   -0.26773E-04   -0.79523E-04  1673   0.436E-02    0.849E-02
RMM:   4    -0.117544456033E+04    0.18416E-04   -0.39158E-04  1608   0.274E-02    0.334E-02
RMM:   5    -0.117544457144E+04   -0.11112E-04   -0.88622E-05  1851   0.130E-02    0.202E-02
RMM:   6    -0.117544456402E+04    0.74220E-05   -0.19951E-05  1564   0.557E-03    0.122E-02
RMM:   7    -0.117544456471E+04   -0.69382E-06   -0.84839E-06  1577   0.360E-03
   4 F= -.11825799E+04 E0= -.11825715E+04  d E =-.675240E-03  mag=     0.3047
