       N       E                     dE             d eps       ncg     rms          rms(c)
DAV:   1     0.453362565308E+04    0.45336E+04   -0.17534E+05  1944   0.906E+02
DAV:   2    -0.124097387634E+03   -0.46577E+04   -0.42330E+04  2520   0.201E+02
DAV:   3    -0.119045624691E+04   -0.10664E+04   -0.10619E+04  2088   0.105E+02
DAV:   4    -0.123340974582E+04   -0.42953E+02   -0.42731E+02  2052   0.277E+01
DAV:   5    -0.123451717196E+04   -0.11074E+01   -0.11052E+01  2376   0.409E+00    0.685E+01
RMM:   6    -0.121990184441E+04    0.14615E+02   -0.11316E+01  1656   0.350E+00    0.526E+01
RMM:   7    -0.119164099424E+04    0.28261E+02   -0.38351E+01  1605   0.679E+00    0.328E+01
RMM:   8    -0.117550404091E+04    0.16137E+02   -0.21632E+01  1610   0.524E+00    0.236E+01
RMM:   9    -0.117008624397E+04    0.54178E+01   -0.23669E+01  1585   0.542E+00    0.134E+01
RMM:  10    -0.117145682295E+04   -0.13706E+01   -0.63694E+00  1621   0.286E+00    0.740E+00
RMM:  11    -0.117062222424E+04    0.83460E+00   -0.79327E-01  1643   0.104E+00    0.428E+00
RMM:  12    -0.117044301361E+04    0.17921E+00   -0.75594E-01  1594   0.938E-01    0.130E+00
RMM:  13    -0.117042681220E+04    0.16201E-01   -0.66754E-02  1732   0.282E-01    0.456E-01
RMM:  14    -0.117042623999E+04    0.57222E-03   -0.45031E-02  1592   0.232E-01    0.294E-01
RMM:  15    -0.117042317468E+04    0.30653E-02   -0.13694E-02  1605   0.125E-01    0.168E-01
RMM:  16    -0.117042329380E+04   -0.11911E-03   -0.14937E-03  1723   0.453E-02    0.151E-01
RMM:  17    -0.117042321156E+04    0.82236E-04   -0.23474E-03  1579   0.544E-02    0.778E-02
RMM:  18    -0.117042323325E+04   -0.21689E-04   -0.13446E-04  1078   0.162E-02
   1 F= -.11775317E+04 E0= -.11775317E+04  d E =-.117753E+04  mag=     0.9978
       N       E                     dE             d eps       ncg     rms          rms(c)
DAV:   1    -0.117041867196E+04    0.45396E-02   -0.12259E+00  1728   0.169E+00    0.613E-01
RMM:   2    -0.117042354860E+04   -0.48766E-02   -0.56409E-02  1773   0.287E-01    0.537E-01
RMM:   3    -0.117042246216E+04    0.10864E-02   -0.41804E-03  1715   0.725E-02    0.404E-01
RMM:   4    -0.117042175686E+04    0.70531E-03   -0.61451E-03  1585   0.869E-02    0.126E-01
RMM:   5    -0.117042170526E+04    0.51597E-04   -0.24326E-04  1216   0.213E-02
   2 F= -.11775302E+04 E0= -.11775302E+04  d E =0.155323E-02  mag=     0.9998
       N       E                     dE             d eps       ncg     rms          rms(c)
DAV:   1    -0.117042444720E+04   -0.26903E-02   -0.43058E-01  1836   0.997E-01    0.346E-01
RMM:   2    -0.117042589252E+04   -0.14453E-02   -0.18129E-02  1763   0.164E-01    0.298E-01
RMM:   3    -0.117042534345E+04    0.54907E-03   -0.15149E-03  1664   0.441E-02    0.217E-01
RMM:   4    -0.117042505206E+04    0.29139E-03   -0.23888E-03  1585   0.538E-02    0.749E-02
RMM:   5    -0.117042502699E+04    0.25072E-04   -0.83127E-05  1112   0.127E-02
   3 F= -.11775335E+04 E0= -.11775335E+04  d E =-.177950E-02  mag=     1.0000
       N       E                     dE             d eps       ncg     rms          rms(c)
DAV:   1    -0.117042527197E+04   -0.21991E-03   -0.56441E-01  1728   0.119E+00    0.352E-01
RMM:   2    -0.117042658322E+04   -0.13113E-02   -0.19637E-02  1758   0.186E-01    0.297E-01
RMM:   3    -0.117042566546E+04    0.91777E-03   -0.17517E-03  1690   0.503E-02    0.215E-01
RMM:   4    -0.117042518755E+04    0.47791E-03   -0.34544E-03  1587   0.641E-02    0.763E-02
RMM:   5    -0.117042515882E+04    0.28725E-04   -0.93648E-05  1099   0.139E-02
   4 F= -.11775336E+04 E0= -.11775336E+04  d E =-.130794E-03  mag=     1.0000
       N       E                     dE             d eps       ncg     rms          rms(c)
DAV:   1    -0.117042615124E+04   -0.96369E-03   -0.14108E-01  1800   0.593E-01    0.170E-01
RMM:   2    -0.117042641355E+04   -0.26231E-03   -0.47797E-03  1768   0.913E-02    0.144E-01
RMM:   3    -0.117042611905E+04    0.29449E-03   -0.45016E-04  1277   0.261E-02    0.104E-01
RMM:   4    -0.117042597973E+04    0.13932E-03   -0.10997E-03  1586   0.366E-02    0.391E-02
RMM:   5    -0.117042596364E+04    0.16096E-04   -0.25633E-05  1058   0.773E-03
   5 F= -.11775344E+04 E0= -.11775344E+04  d E =-.935783E-03  mag=     1.0000
