       N       E                     dE             d eps       ncg     rms          rms(c)
DAV:   1     0.495260957247E+04    0.49526E+04   -0.17141E+05  1728   0.990E+02
DAV:   2     0.110926288189E+02   -0.49415E+04   -0.45497E+04  2340   0.220E+02
DAV:   3    -0.117804117786E+04   -0.11891E+04   -0.11838E+04  1908   0.118E+02
DAV:   4    -0.123152476918E+04   -0.53484E+02   -0.53093E+02  1908   0.330E+01
DAV:   5    -0.123303012115E+04   -0.15054E+01   -0.15015E+01  2196   0.490E+00    0.622E+01
RMM:   6    -0.121891501007E+04    0.14115E+02   -0.78861E+00  1448   0.340E+00    0.506E+01
RMM:   7    -0.117496507957E+04    0.43950E+02   -0.78392E+01  1447   0.104E+01    0.283E+01
RMM:   8    -0.116585310410E+04    0.91120E+01   -0.28689E+01  1446   0.662E+00    0.155E+01
RMM:   9    -0.116643493374E+04   -0.58183E+00   -0.17672E+01  1449   0.518E+00    0.912E+00
RMM:  10    -0.116553164059E+04    0.90329E+00   -0.39126E+00  1447   0.217E+00    0.454E+00
RMM:  11    -0.116528388243E+04    0.24776E+00   -0.31325E-01  1453   0.700E-01    0.280E+00
RMM:  12    -0.116511658895E+04    0.16729E+00   -0.23435E-01  1531   0.393E-01    0.114E+00
RMM:  13    -0.116510047320E+04    0.16116E-01   -0.15368E-01  1565   0.294E-01    0.351E-01
RMM:  14    -0.116509884222E+04    0.16310E-02   -0.12414E-02  1550   0.112E-01    0.281E-01
RMM:  15    -0.116509867149E+04    0.17074E-03   -0.39220E-03  1480   0.603E-02    0.178E-01
RMM:  16    -0.116509888248E+04   -0.21099E-03   -0.27462E-03  1521   0.594E-02    0.117E-01
RMM:  17    -0.116509881449E+04    0.67992E-04   -0.60619E-04  1232   0.260E-02
   1 F= -.11721786E+04 E0= -.11721786E+04  d E =-.117218E+04  mag=     0.0012
       N       E                     dE             d eps       ncg     rms          rms(c)
DAV:   1    -0.116509488332E+04    0.39992E-02   -0.27759E+00  1584   0.226E+00    0.917E-01
RMM:   2    -0.116510053742E+04   -0.56541E-02   -0.75468E-02  1495   0.317E-01    0.850E-01
RMM:   3    -0.116509864010E+04    0.18973E-02   -0.41366E-03  1552   0.713E-02    0.727E-01
RMM:   4    -0.116509904011E+04   -0.40000E-03   -0.22599E-02  1446   0.170E-01    0.198E-01
RMM:   5    -0.116509734447E+04    0.16956E-02   -0.12551E-03  1291   0.394E-02    0.132E-01
RMM:   6    -0.116509716656E+04    0.17791E-03   -0.14359E-03  1329   0.340E-02    0.538E-02
RMM:   7    -0.116509710203E+04    0.64523E-04   -0.22787E-04   948   0.148E-02
   2 F= -.11721768E+04 E0= -.11721768E+04  d E =0.181178E-02  mag=    -0.0000
       N       E                     dE             d eps       ncg     rms          rms(c)
DAV:   1    -0.116510308438E+04   -0.59178E-02   -0.82360E-01  1440   0.123E+00    0.484E-01
RMM:   2    -0.116510435194E+04   -0.12676E-02   -0.18348E-02  1481   0.165E-01    0.459E-01
RMM:   3    -0.116510383598E+04    0.51596E-03   -0.92513E-04  1180   0.346E-02    0.396E-01
RMM:   4    -0.116510385705E+04   -0.21072E-04   -0.61756E-03  1446   0.893E-02    0.987E-02
RMM:   5    -0.116510344272E+04    0.41433E-03   -0.28771E-04   963   0.197E-02    0.678E-02
RMM:   6    -0.116510338763E+04    0.55090E-04   -0.40864E-04  1036   0.188E-02
   3 F= -.11721831E+04 E0= -.11721831E+04  d E =-.451958E-02  mag=     0.0000
       N       E                     dE             d eps       ncg     rms          rms(c)
DAV:   1    -0.116510439962E+04   -0.95690E-03   -0.63954E-01  1476   0.128E+00    0.311E-01
RMM:   2    -0.116510492665E+04   -0.52702E-03   -0.15375E-02  1444   0.188E-01    0.276E-01
RMM:   3    -0.116510360031E+04    0.13263E-02   -0.12189E-03  1462   0.447E-02    0.207E-01
RMM:   4    -0.116510279942E+04    0.80089E-03   -0.50786E-03  1440   0.809E-02    0.958E-02
RMM:   5    -0.116510263858E+04    0.16085E-03   -0.33670E-04  1040   0.220E-02    0.726E-02
RMM:   6    -0.116510266192E+04   -0.23343E-04   -0.11335E-04   906   0.145E-02
   4 F= -.11721825E+04 E0= -.11721825E+04  d E =0.584591E-03  mag=    -0.0000
       N       E                     dE             d eps       ncg     rms          rms(c)
DAV:   1    -0.116510506300E+04   -0.24244E-02   -0.20324E-01  1512   0.722E-01    0.178E-01
RMM:   2    -0.116510513123E+04   -0.68230E-04   -0.47478E-03  1454   0.104E-01    0.157E-01
RMM:   3    -0.116510462258E+04    0.50865E-03   -0.47645E-04  1154   0.273E-02    0.112E-01
RMM:   4    -0.116510434997E+04    0.27261E-03   -0.14079E-03  1442   0.428E-02    0.564E-02
RMM:   5    -0.116510429374E+04    0.56233E-04   -0.13543E-04   922   0.145E-02
   5 F= -.11721841E+04 E0= -.11721841E+04  d E =-.970001E-03  mag=     0.0000
