       N       E                     dE             d eps       ncg     rms          rms(c)
DAV:   1     0.483270625839E+04    0.48327E+04   -0.17221E+05  1872   0.906E+02
DAV:   2    -0.668406439631E+02   -0.48995E+04   -0.44462E+04  2520   0.204E+02
DAV:   3    -0.119047118238E+04   -0.11236E+04   -0.11194E+04  2124   0.108E+02
DAV:   4    -0.123565845146E+04   -0.45187E+02   -0.44974E+02  2052   0.286E+01
DAV:   5    -0.123683121951E+04   -0.11728E+01   -0.11706E+01  2412   0.424E+00    0.676E+01
RMM:   6    -0.122219795663E+04    0.14633E+02   -0.10480E+01  1622   0.338E+00    0.535E+01
RMM:   7    -0.118893459404E+04    0.33263E+02   -0.53348E+01  1612   0.794E+00    0.310E+01
RMM:   8    -0.117653690687E+04    0.12398E+02   -0.17285E+01  1603   0.468E+00    0.231E+01
RMM:   9    -0.117272456324E+04    0.38123E+01   -0.32069E+01  1584   0.633E+00    0.107E+01
RMM:  10    -0.117334308051E+04   -0.61852E+00   -0.23576E+00  1645   0.185E+00    0.765E+00
RMM:  11    -0.117242364732E+04    0.91943E+00   -0.14233E+00  1597   0.126E+00    0.423E+00
RMM:  12    -0.117227344834E+04    0.15020E+00   -0.46096E-01  1639   0.735E-01    0.130E+00
RMM:  13    -0.117224495077E+04    0.28498E-01   -0.12339E-01  1607   0.391E-01    0.680E-01
RMM:  14    -0.117224196644E+04    0.29843E-02   -0.17051E-02  1701   0.140E-01    0.404E-01
RMM:  15    -0.117224335000E+04   -0.13836E-02   -0.11358E-02  1617   0.113E-01    0.304E-01
RMM:  16    -0.117224289580E+04    0.45420E-03   -0.18201E-03  1686   0.416E-02    0.272E-01
RMM:  17    -0.117224288317E+04    0.12631E-04   -0.55915E-04  1117   0.159E-02
   1 F= -.11795098E+04 E0= -.11795098E+04  d E =-.117951E+04  mag=     0.9864
       N       E                     dE             d eps       ncg     rms          rms(c)
DAV:   1    -0.117224891440E+04   -0.60186E-02   -0.61967E-01  1908   0.124E+00    0.512E-01
RMM:   2    -0.117224776087E+04    0.11535E-02   -0.21800E-02  1693   0.196E-01    0.451E-01
RMM:   3    -0.117224221301E+04    0.55479E-02   -0.63526E-03  1596   0.879E-02    0.302E-01
RMM:   4    -0.117224002483E+04    0.21882E-02   -0.78489E-03  1584   0.950E-02    0.170E-01
RMM:   5    -0.117223998197E+04    0.42858E-04   -0.86523E-04  1588   0.329E-02
   2 F= -.11795076E+04 E0= -.11795076E+04  d E =0.225711E-02  mag=     0.9973
       N       E                     dE             d eps       ncg     rms          rms(c)
DAV:   1    -0.117224582914E+04   -0.58043E-02   -0.28808E-01  1800   0.847E-01    0.283E-01
RMM:   2    -0.117224555185E+04    0.27728E-03   -0.80154E-03  1671   0.125E-01    0.244E-01
RMM:   3    -0.117224362474E+04    0.19271E-02   -0.20821E-03  1588   0.512E-02    0.146E-01
RMM:   4    -0.117224292751E+04    0.69723E-03   -0.17492E-03  1580   0.449E-02    0.874E-02
RMM:   5    -0.117224286309E+04    0.64418E-04   -0.31455E-04  1201   0.209E-02
   3 F= -.11795100E+04 E0= -.11795100E+04  d E =-.177137E-03  mag=     0.9998
