       N       E                     dE             d eps       ncg     rms          rms(c)
DAV:   1     0.488988156671E+04    0.48899E+04   -0.17371E+05  1872   0.911E+02
DAV:   2    -0.437115044931E+02   -0.49336E+04   -0.44938E+04  2520   0.206E+02
DAV:   3    -0.118946488131E+04   -0.11458E+04   -0.11411E+04  2160   0.110E+02
DAV:   4    -0.123498072339E+04   -0.45516E+02   -0.45270E+02  2016   0.290E+01
DAV:   5    -0.123616688345E+04   -0.11862E+01   -0.11830E+01  2304   0.443E+00    0.690E+01
RMM:   6    -0.122070123612E+04    0.15466E+02   -0.37562E+01  1736   0.535E+00    0.559E+01
RMM:   7    -0.120175301306E+04    0.18948E+02   -0.95841E+00  1631   0.342E+00    0.455E+01
RMM:   8    -0.117797180912E+04    0.23781E+02   -0.49385E+01  1587   0.799E+00    0.327E+01
RMM:   9    -0.116725162192E+04    0.10720E+02   -0.20328E+01  1661   0.475E+00    0.233E+01
RMM:  10    -0.116618010105E+04    0.10715E+01   -0.91476E+00  1667   0.338E+00    0.120E+01
RMM:  11    -0.116711103561E+04   -0.93093E+00   -0.47443E+00  1632   0.247E+00    0.804E+00
RMM:  12    -0.116754197275E+04   -0.43094E+00   -0.21249E+00  1651   0.142E+00    0.864E+00
RMM:  13    -0.116601229673E+04    0.15297E+01   -0.67168E-01  1761   0.718E-01    0.389E+00
RMM:  14    -0.116588155608E+04    0.13074E+00   -0.72465E-01  1591   0.945E-01    0.260E+00
RMM:  15    -0.116581027786E+04    0.71278E-01   -0.54644E-02  1824   0.274E-01    0.170E+00
RMM:  16    -0.116582477058E+04   -0.14493E-01   -0.29770E-02  1659   0.179E-01    0.133E+00
RMM:  17    -0.116581547207E+04    0.92985E-02   -0.15427E-02  1633   0.144E-01    0.122E+00
RMM:  18    -0.116584397782E+04   -0.28506E-01   -0.84851E-03  1753   0.970E-02    0.252E+00
RMM:  19    -0.116582328957E+04    0.20688E-01   -0.57742E-03  1612   0.837E-02    0.172E+00
RMM:  20    -0.116582450960E+04   -0.12200E-02   -0.51688E-04  1197   0.275E-02    0.166E+00
RMM:  21    -0.116582415300E+04    0.35660E-03   -0.71534E-05  1065   0.135E-02    0.161E+00
RMM:  22    -0.116581079791E+04    0.13355E-01   -0.11041E-02  1621   0.116E-01    0.104E+00
RMM:  23    -0.116583297885E+04   -0.22181E-01   -0.14599E-02  1613   0.126E-01    0.266E+00
RMM:  24    -0.116583598256E+04   -0.30037E-02   -0.13440E-03  1314   0.482E-02    0.266E+00
RMM:  25    -0.116583505141E+04    0.93115E-03   -0.15057E-04  1091   0.193E-02    0.265E+00
RMM:  26    -0.116583441148E+04    0.63993E-03   -0.47944E-05  1042   0.105E-02    0.261E+00
RMM:  27    -0.116582467650E+04    0.97350E-02   -0.28496E-04  1109   0.171E-02    0.227E+00
RMM:  28    -0.116581509680E+04    0.95797E-02   -0.60793E-04  1238   0.244E-02    0.176E+00
RMM:  29    -0.116581293180E+04    0.21650E-02   -0.14423E-03  1383   0.393E-02    0.145E+00
RMM:  30    -0.116580009425E+04    0.12838E-01   -0.61462E-03  1642   0.848E-02    0.617E-01
RMM:  31    -0.116579744274E+04    0.26515E-02   -0.35210E-03  1665   0.560E-02    0.530E-01
RMM:  32    -0.116579853370E+04   -0.10910E-02   -0.58039E-04  1278   0.328E-02    0.406E-01
RMM:  33    -0.116580050626E+04   -0.19726E-02   -0.12025E-03  1362   0.363E-02    0.648E-01
RMM:  34    -0.116579789102E+04    0.26152E-02   -0.54571E-04  1272   0.282E-02    0.506E-01
RMM:  35    -0.116579642035E+04    0.14707E-02   -0.54153E-04  1236   0.225E-02    0.405E-01
RMM:  36    -0.116579569978E+04    0.72057E-03   -0.22718E-04  1108   0.181E-02    0.370E-01
RMM:  37    -0.116579591160E+04   -0.21182E-03   -0.13539E-04  1060   0.142E-02    0.420E-01
RMM:  38    -0.116579499750E+04    0.91410E-03   -0.38625E-04  1178   0.194E-02    0.402E-01
RMM:  39    -0.116579440817E+04    0.58933E-03   -0.23214E-04  1109   0.164E-02    0.254E-01
RMM:  40    -0.116579500680E+04   -0.59863E-03   -0.42416E-04  1237   0.223E-02    0.278E-01
RMM:  41    -0.116579496371E+04    0.43092E-04   -0.17451E-04  1072   0.165E-02
   1 F= -.11729953E+04 E0= -.11729829E+04  d E =-.117300E+04  mag=     0.4253
       N       E                     dE             d eps       ncg     rms          rms(c)
DAV:   1    -0.116547017693E+04    0.32483E+00   -0.39907E+01  1692   0.994E+00    0.239E+00
RMM:   2    -0.116577818239E+04   -0.30801E+00   -0.32979E+00  1791   0.212E+00    0.247E+00
RMM:   3    -0.116579602555E+04   -0.17843E-01   -0.25631E-01  1837   0.550E-01    0.294E+00
RMM:   4    -0.116579803777E+04   -0.20122E-02   -0.17213E-02  1899   0.132E-01    0.300E+00
RMM:   5    -0.116579739998E+04    0.63779E-03   -0.11127E-03  1328   0.381E-02    0.298E+00
RMM:   6    -0.116579962791E+04   -0.22279E-02   -0.24942E-01  1643   0.466E-01    0.308E+00
RMM:   7    -0.116579378840E+04    0.58395E-02   -0.29349E-02  1772   0.186E-01    0.307E+00
RMM:   8    -0.116579265598E+04    0.11324E-02   -0.20911E-03  1685   0.579E-02    0.304E+00
RMM:   9    -0.116579270646E+04   -0.50484E-04   -0.19025E-04  1143   0.177E-02
   2 F= -.11729964E+04 E0= -.11729964E+04  d E =-.107041E-02  mag=    -0.0446
       N       E                     dE             d eps       ncg     rms          rms(c)
DAV:   1    -0.116583077923E+04   -0.38123E-01   -0.79945E+00  1656   0.440E+00    0.284E+00
RMM:   2    -0.116587767313E+04   -0.46894E-01   -0.58174E-01  1793   0.921E-01    0.342E+00
RMM:   3    -0.116589824064E+04   -0.20568E-01   -0.59788E-02  1781   0.266E-01    0.425E+00
RMM:   4    -0.116585955588E+04    0.38685E-01   -0.15748E-01  1673   0.367E-01    0.203E+00
RMM:   5    -0.116585834882E+04    0.12071E-02   -0.16031E-02  1845   0.140E-01    0.153E+00
RMM:   6    -0.116585759061E+04    0.75821E-03   -0.93023E-04  1425   0.390E-02    0.136E+00
RMM:   7    -0.116585694624E+04    0.64437E-03   -0.10191E-02  1646   0.942E-02    0.503E-01
RMM:   8    -0.116585678142E+04    0.16482E-03   -0.37070E-04  1229   0.310E-02    0.331E-01
RMM:   9    -0.116585659824E+04    0.18319E-03   -0.31818E-04  1215   0.198E-02    0.325E-01
RMM:  10    -0.116585660949E+04   -0.11258E-04   -0.27244E-04  1174   0.192E-02
   3 F= -.11730588E+04 E0= -.11730588E+04  d E =-.635141E-01  mag=    -0.0010
       N       E                     dE             d eps       ncg     rms          rms(c)
DAV:   1    -0.116585615477E+04    0.44347E-03   -0.47782E-01  1728   0.108E+00    0.230E-01
RMM:   2    -0.116585950719E+04   -0.33524E-02   -0.37059E-02  1781   0.228E-01    0.339E-01
RMM:   3    -0.116585968828E+04   -0.18109E-03   -0.24770E-03  1405   0.568E-02    0.422E-01
RMM:   4    -0.116585965062E+04    0.37659E-04   -0.33156E-04  1107   0.187E-02
   4 F= -.11730615E+04 E0= -.11730614E+04  d E =-.661950E-01  mag=     0.0001
       N       E                     dE             d eps       ncg     rms          rms(c)
DAV:   1    -0.116567339988E+04    0.18629E+00   -0.10586E+01  1584   0.524E+00    0.166E+00
RMM:   2    -0.116585197635E+04   -0.17858E+00   -0.19590E+00  1808   0.123E+00    0.109E+00
RMM:   3    -0.116586529146E+04   -0.13315E-01   -0.15118E-01  1796   0.307E-01    0.113E+00
RMM:   4    -0.116586479721E+04    0.49425E-03   -0.46601E-03  1581   0.637E-02    0.110E+00
RMM:   5    -0.116586407398E+04    0.72324E-03   -0.79007E-03  1626   0.859E-02    0.623E-01
RMM:   6    -0.116586588518E+04   -0.18112E-02   -0.77864E-03  1608   0.965E-02    0.284E-01
RMM:   7    -0.116586604613E+04   -0.16095E-03   -0.91066E-04  1290   0.333E-02    0.281E-01
RMM:   8    -0.116586602499E+04    0.21136E-04   -0.18972E-04  1110   0.163E-02
   5 F= -.11730659E+04 E0= -.11730659E+04  d E =-.436720E-02  mag=    -0.0000
       N       E                     dE             d eps       ncg     rms          rms(c)
DAV:   1    -0.116584168219E+04    0.24364E-01   -0.21276E+00  1584   0.233E+00    0.583E-01
RMM:   2    -0.116587715232E+04   -0.35470E-01   -0.37210E-01  1804   0.549E-01    0.613E-01
RMM:   3    -0.116587945286E+04   -0.23005E-02   -0.23819E-02  1666   0.134E-01    0.760E-01
RMM:   4    -0.116587965702E+04   -0.20416E-03   -0.30892E-03  1242   0.331E-02    0.799E-01
RMM:   5    -0.116587960174E+04    0.55280E-04   -0.11537E-04  1083   0.132E-02
   6 F= -.11730803E+04 E0= -.11730803E+04  d E =-.188155E-01  mag=    -0.0000
       N       E                     dE             d eps       ncg     rms          rms(c)
DAV:   1    -0.116585381600E+04    0.25841E-01   -0.40037E+00  1584   0.329E+00    0.951E-01
RMM:   2    -0.116587300625E+04   -0.19190E-01   -0.21943E-01  1727   0.607E-01    0.111E+00
RMM:   3    -0.116587401225E+04   -0.10060E-02   -0.14452E-02  1877   0.146E-01    0.124E+00
RMM:   4    -0.116587343851E+04    0.57374E-03   -0.89535E-03  1641   0.967E-02    0.113E+00
RMM:   5    -0.116587799435E+04   -0.45558E-02   -0.18373E-02  1632   0.140E-01    0.949E-01
RMM:   6    -0.116588062852E+04   -0.26342E-02   -0.48308E-03  1624   0.741E-02    0.854E-01
RMM:   7    -0.116588151685E+04   -0.88833E-03   -0.11501E-02  1634   0.933E-02    0.737E-01
RMM:   8    -0.116588076880E+04    0.74805E-03   -0.31473E-03  1487   0.521E-02    0.675E-01
RMM:   9    -0.116588091548E+04   -0.14668E-03   -0.26346E-03  1619   0.484E-02    0.632E-01
RMM:  10    -0.116588031994E+04    0.59554E-03   -0.22220E-03  1576   0.434E-02    0.523E-01
RMM:  11    -0.116588052364E+04   -0.20370E-03   -0.56388E-04  1255   0.252E-02    0.512E-01
RMM:  12    -0.116588051133E+04    0.12306E-04   -0.88923E-05  1040   0.127E-02
   7 F= -.11730812E+04 E0= -.11730812E+04  d E =-.831776E-03  mag=    -0.0000
       N       E                     dE             d eps       ncg     rms          rms(c)
DAV:   1    -0.116589510088E+04   -0.14577E-01   -0.70452E-01  1728   0.139E+00    0.530E-01
RMM:   2    -0.116589855012E+04   -0.34492E-02   -0.41800E-02  1732   0.263E-01    0.297E-01
RMM:   3    -0.116589836854E+04    0.18158E-03   -0.32154E-03  1669   0.667E-02    0.198E-01
RMM:   4    -0.116589807358E+04    0.29496E-03   -0.15899E-03  1592   0.433E-02    0.881E-02
RMM:   5    -0.116589808369E+04   -0.10108E-04   -0.38509E-04  1222   0.232E-02
   8 F= -.11730987E+04 E0= -.11730987E+04  d E =-.184201E-01  mag=    -0.0000
       N       E                     dE             d eps       ncg     rms          rms(c)
DAV:   1    -0.116590029296E+04   -0.22194E-02   -0.24550E-01  1656   0.818E-01    0.155E-01
RMM:   2    -0.116590149746E+04   -0.12045E-02   -0.13510E-02  1728   0.155E-01    0.164E-01
RMM:   3    -0.116590151050E+04   -0.13047E-04   -0.82367E-04  1288   0.368E-02
   9 F= -.11731022E+04 E0= -.11731022E+04  d E =-.218675E-01  mag=    -0.0000
       N       E                     dE             d eps       ncg     rms          rms(c)
DAV:   1    -0.116589288951E+04    0.86079E-02   -0.20685E+00  1584   0.223E+00    0.378E-01
RMM:   2    -0.116590280489E+04   -0.99154E-02   -0.10524E-01  1732   0.419E-01    0.468E-01
RMM:   3    -0.116590319015E+04   -0.38526E-03   -0.74683E-03  1691   0.996E-02    0.558E-01
RMM:   4    -0.116590319083E+04   -0.67842E-06   -0.43725E-04  1215   0.258E-02
  10 F= -.11731033E+04 E0= -.11731033E+04  d E =-.114486E-02  mag=    -0.0000
       N       E                     dE             d eps       ncg     rms          rms(c)
DAV:   1    -0.116590304333E+04    0.14682E-03   -0.39316E-01  1728   0.974E-01    0.500E-01
RMM:   2    -0.116590498374E+04   -0.19404E-02   -0.20313E-02  1728   0.184E-01    0.263E-01
RMM:   3    -0.116590503029E+04   -0.46555E-04   -0.15983E-03  1464   0.489E-02    0.156E-01
RMM:   4    -0.116590499956E+04    0.30734E-04   -0.43870E-04  1194   0.247E-02
  11 F= -.11731054E+04 E0= -.11731054E+04  d E =-.318689E-02  mag=     0.0000
       N       E                     dE             d eps       ncg     rms          rms(c)
DAV:   1    -0.116590606111E+04   -0.10308E-02   -0.48468E-01  1728   0.114E+00    0.196E-01
RMM:   2    -0.116590736001E+04   -0.12989E-02   -0.15581E-02  1688   0.182E-01    0.176E-01
RMM:   3    -0.116590717406E+04    0.18595E-03   -0.90044E-04  1466   0.439E-02    0.165E-01
RMM:   4    -0.116590684072E+04    0.33334E-03   -0.41025E-04  1336   0.271E-02    0.117E-01
RMM:   5    -0.116590663151E+04    0.20920E-03   -0.12696E-03  1560   0.412E-02    0.398E-02
RMM:   6    -0.116590661870E+04    0.12816E-04   -0.43900E-05  1028   0.112E-02
  12 F= -.11731069E+04 E0= -.11731069E+04  d E =-.151621E-02  mag=     0.0000
       N       E                     dE             d eps       ncg     rms          rms(c)
DAV:   1    -0.116590763979E+04   -0.10083E-02   -0.73668E-02  1728   0.445E-01    0.734E-02
RMM:   2    -0.116590783254E+04   -0.19275E-03   -0.23352E-03  1666   0.707E-02    0.650E-02
RMM:   3    -0.116590779887E+04    0.33676E-04   -0.11933E-04  1026   0.176E-02
  13 F= -.11731081E+04 E0= -.11731081E+04  d E =-.273501E-02  mag=    -0.0000
