       N       E                     dE             d eps       ncg     rms          rms(c)
DAV:   1     0.508277639414E+04    0.50828E+04   -0.17300E+05  1800   0.918E+02
DAV:   2    -0.112657698333E+02   -0.50940E+04   -0.46605E+04  2520   0.212E+02
DAV:   3    -0.119106545905E+04   -0.11798E+04   -0.11742E+04  2232   0.112E+02
DAV:   4    -0.123905507200E+04   -0.47990E+02   -0.47720E+02  2016   0.291E+01
DAV:   5    -0.124053173022E+04   -0.14767E+01   -0.14735E+01  2592   0.441E+00    0.654E+01
RMM:   6    -0.122673174473E+04    0.13800E+02   -0.84042E+00  1585   0.321E+00    0.533E+01
RMM:   7    -0.118573761419E+04    0.40994E+02   -0.73909E+01  1584   0.951E+00    0.306E+01
RMM:   8    -0.117916581686E+04    0.65718E+01   -0.12874E+01  1586   0.405E+00    0.226E+01
RMM:   9    -0.117708719583E+04    0.20786E+01   -0.31375E+01  1584   0.632E+00    0.131E+01
RMM:  10    -0.117642387562E+04    0.66332E+00   -0.27840E+00  1597   0.194E+00    0.840E+00
RMM:  11    -0.117546254300E+04    0.96133E+00   -0.43557E+00  1585   0.154E+00    0.616E+00
RMM:  12    -0.117486955224E+04    0.59299E+00   -0.11019E+00  1588   0.870E-01    0.240E+00
RMM:  13    -0.117484789919E+04    0.21653E-01   -0.47489E-01  1591   0.689E-01    0.181E+00
RMM:  14    -0.117476263373E+04    0.85265E-01   -0.13957E-01  1592   0.331E-01    0.482E-01
RMM:  15    -0.117476623030E+04   -0.35966E-02   -0.15714E-02  1637   0.124E-01    0.504E-01
RMM:  16    -0.117476176593E+04    0.44644E-02   -0.10973E-02  1656   0.701E-02    0.253E-01
RMM:  17    -0.117476263078E+04   -0.86485E-03   -0.43132E-03  1602   0.462E-02    0.283E-01
RMM:  18    -0.117476240830E+04    0.22249E-03   -0.36710E-03  1579   0.616E-02    0.710E-02
RMM:  19    -0.117476282521E+04   -0.41691E-03   -0.36187E-04  1211   0.231E-02    0.468E-02
RMM:  20    -0.117476295052E+04   -0.12531E-03   -0.24092E-04  1098   0.182E-02    0.481E-02
RMM:  21    -0.117476293119E+04    0.19330E-04   -0.12543E-04  1045   0.137E-02
   1 F= -.11818755E+04 E0= -.11818701E+04  d E =-.118188E+04  mag=    -0.8365
       N       E                     dE             d eps       ncg     rms          rms(c)
DAV:   1    -0.117449749838E+04    0.26545E+00   -0.54021E+01  1656   0.584E+00    0.707E+00
RMM:   2    -0.117462285417E+04   -0.12536E+00   -0.15050E+00  1622   0.940E-01    0.676E+00
RMM:   3    -0.117459162921E+04    0.31225E-01   -0.73071E-02  1674   0.200E-01    0.525E+00
RMM:   4    -0.117461870705E+04   -0.27078E-01   -0.33918E-01  1617   0.424E-01    0.977E-01
RMM:   5    -0.117459058920E+04    0.28118E-01   -0.18752E-02  1598   0.116E-01    0.620E-01
RMM:   6    -0.117458097783E+04    0.96114E-02   -0.49748E-02  1596   0.171E-01    0.301E-01
RMM:   7    -0.117458046839E+04    0.50945E-03   -0.14735E-03  1344   0.351E-02    0.114E-01
RMM:   8    -0.117458017201E+04    0.29638E-03   -0.97845E-04  1213   0.267E-02    0.508E-02
RMM:   9    -0.117458017231E+04   -0.29915E-06   -0.13484E-04  1056   0.102E-02
   2 F= -.11816982E+04 E0= -.11816928E+04  d E =0.177340E+00  mag=    -0.8372
       N       E                     dE             d eps       ncg     rms          rms(c)
DAV:   1    -0.117476577949E+04   -0.18561E+00   -0.25841E+01  1620   0.433E+00    0.509E+00
RMM:   2    -0.117482384865E+04   -0.58069E-01   -0.71133E-01  1601   0.657E-01    0.503E+00
RMM:   3    -0.117480685005E+04    0.16999E-01   -0.25640E-02  1633   0.115E-01    0.440E+00
RMM:   4    -0.117481278184E+04   -0.59318E-02   -0.17185E-01  1629   0.298E-01    0.683E-01
RMM:   5    -0.117480486187E+04    0.79200E-02   -0.78486E-03  1601   0.622E-02    0.490E-01
RMM:   6    -0.117479754602E+04    0.73159E-02   -0.20569E-02  1576   0.109E-01    0.212E-01
RMM:   7    -0.117479701902E+04    0.52700E-03   -0.22159E-03  1260   0.324E-02    0.825E-02
RMM:   8    -0.117479682707E+04    0.19194E-03   -0.75148E-04  1159   0.215E-02    0.369E-02
RMM:   9    -0.117479680632E+04    0.20755E-04   -0.11909E-04  1055   0.869E-03
   3 F= -.11819111E+04 E0= -.11819057E+04  d E =-.355662E-01  mag=    -0.8357
       N       E                     dE             d eps       ncg     rms          rms(c)
DAV:   1    -0.117479828380E+04   -0.14567E-02   -0.96222E-01  1692   0.141E+00    0.421E-01
RMM:   2    -0.117479992001E+04   -0.16362E-02   -0.21933E-02  1630   0.191E-01    0.353E-01
RMM:   3    -0.117479934009E+04    0.57992E-03   -0.13699E-03  1592   0.432E-02    0.293E-01
RMM:   4    -0.117479918199E+04    0.15810E-03   -0.32105E-03  1588   0.593E-02    0.136E-01
RMM:   5    -0.117479909420E+04    0.87784E-04   -0.30052E-04  1122   0.174E-02
   4 F= -.11819139E+04 E0= -.11819085E+04  d E =-.281950E-02  mag=    -0.8356
       N       E                     dE             d eps       ncg     rms          rms(c)
DAV:   1    -0.117479932796E+04   -0.14598E-03   -0.45622E-02  1584   0.309E-01    0.909E-02
RMM:   2    -0.117479933791E+04   -0.99484E-05   -0.86101E-04  1283   0.385E-02
   5 F= -.11819140E+04 E0= -.11819086E+04  d E =-.294610E-02  mag=    -0.8356
       N       E                     dE             d eps       ncg     rms          rms(c)
DAV:   1    -0.117480000687E+04   -0.67891E-03   -0.49650E-01  1728   0.103E+00    0.186E-01
RMM:   2    -0.117480092677E+04   -0.91989E-03   -0.10936E-02  1617   0.137E-01    0.158E-01
RMM:   3    -0.117480078021E+04    0.14655E-03   -0.53049E-04  1296   0.280E-02    0.140E-01
RMM:   4    -0.117480072311E+04    0.57108E-04   -0.82112E-04  1474   0.306E-02
   6 F= -.11819156E+04 E0= -.11819103E+04  d E =-.163250E-02  mag=    -0.8364
       N       E                     dE             d eps       ncg     rms          rms(c)
DAV:   1    -0.117480072213E+04    0.58080E-04   -0.44942E-04  1872   0.331E-02    0.408E-02
RMM:   2    -0.117480071717E+04    0.49664E-05   -0.27313E-05   962   0.774E-03
   7 F= -.11819156E+04 E0= -.11819103E+04  d E =-.161997E-02  mag=    -0.8366
       N       E                     dE             d eps       ncg     rms          rms(c)
DAV:   1    -0.117480144778E+04   -0.72565E-03   -0.26656E-01  1656   0.756E-01    0.137E-01
RMM:   2    -0.117480183507E+04   -0.38729E-03   -0.53761E-03  1590   0.989E-02    0.121E-01
RMM:   3    -0.117480174104E+04    0.94030E-04   -0.29205E-04  1154   0.211E-02
   8 F= -.11819168E+04 E0= -.11819115E+04  d E =-.116288E-02  mag=    -0.8382
       N       E                     dE             d eps       ncg     rms          rms(c)
DAV:   1    -0.117480070249E+04    0.11326E-02   -0.57447E-01  1584   0.111E+00    0.229E-01
RMM:   2    -0.117480153478E+04   -0.83229E-03   -0.10946E-02  1590   0.139E-01    0.199E-01
RMM:   3    -0.117480134227E+04    0.19251E-03   -0.72521E-04  1272   0.309E-02    0.160E-01
RMM:   4    -0.117480132958E+04    0.12695E-04   -0.15892E-03  1579   0.441E-02    0.512E-02
RMM:   5    -0.117480130239E+04    0.27188E-04   -0.53939E-05  1046   0.924E-03
   9 F= -.11819166E+04 E0= -.11819113E+04  d E =-.937584E-03  mag=    -0.8410
       N       E                     dE             d eps       ncg     rms          rms(c)
DAV:   1    -0.117480175268E+04   -0.42311E-03   -0.17489E-01  1656   0.613E-01    0.105E-01
RMM:   2    -0.117480197549E+04   -0.22281E-03   -0.33184E-03  1584   0.761E-02    0.900E-02
RMM:   3    -0.117480186941E+04    0.10609E-03   -0.17210E-04  1073   0.171E-02    0.735E-02
RMM:   4    -0.117480180397E+04    0.65440E-04   -0.57983E-04  1397   0.261E-02
  10 F= -.11819169E+04 E0= -.11819117E+04  d E =-.132106E-02  mag=    -0.8394
       N       E                     dE             d eps       ncg     rms          rms(c)
DAV:   1    -0.117480245335E+04   -0.58394E-03   -0.29870E-01  1584   0.809E-01    0.124E-01
RMM:   2    -0.117480288143E+04   -0.42809E-03   -0.56063E-03  1586   0.103E-01    0.112E-01
RMM:   3    -0.117480278863E+04    0.92801E-04   -0.29220E-04  1171   0.223E-02
  11 F= -.11819179E+04 E0= -.11819126E+04  d E =-.978722E-03  mag=    -0.8384
       N       E                     dE             d eps       ncg     rms          rms(c)
DAV:   1    -0.117480234349E+04    0.53795E-03   -0.20293E-01  1584   0.669E-01    0.140E-01
RMM:   2    -0.117480260451E+04   -0.26103E-03   -0.35327E-03  1588   0.794E-02    0.126E-01
RMM:   3    -0.117480256446E+04    0.40053E-04   -0.23160E-04  1135   0.184E-02
  12 F= -.11819177E+04 E0= -.11819124E+04  d E =-.751036E-03  mag=    -0.8367
