       N       E                     dE             d eps       ncg     rms          rms(c)
DAV:   1     0.477392195151E+04    0.47739E+04   -0.17569E+05  1872   0.921E+02
DAV:   2    -0.558522418633E+02   -0.48298E+04   -0.44193E+04  2520   0.210E+02
DAV:   3    -0.118347550969E+04   -0.11276E+04   -0.11223E+04  2124   0.110E+02
DAV:   4    -0.122991540161E+04   -0.46440E+02   -0.46217E+02  2052   0.295E+01
DAV:   5    -0.123108475319E+04   -0.11694E+01   -0.11673E+01  2412   0.437E+00    0.607E+01
RMM:   6    -0.121940069665E+04    0.11684E+02   -0.71305E+00  1584   0.313E+00    0.494E+01
RMM:   7    -0.117963119985E+04    0.39769E+02   -0.62647E+01  1584   0.913E+00    0.290E+01
RMM:   8    -0.116865096122E+04    0.10980E+02   -0.49953E+01  1584   0.818E+00    0.134E+01
RMM:   9    -0.116986984761E+04   -0.12189E+01   -0.70685E+00  1590   0.325E+00    0.957E+00
RMM:  10    -0.116876702606E+04    0.11028E+01   -0.39817E+00  1584   0.241E+00    0.277E+00
RMM:  11    -0.116882004203E+04   -0.53016E-01   -0.17331E-01  1600   0.658E-01    0.206E+00
RMM:  12    -0.116873879252E+04    0.81250E-01   -0.19142E-01  1587   0.518E-01    0.798E-01
RMM:  13    -0.116873099471E+04    0.77978E-02   -0.97354E-02  1584   0.379E-01    0.399E-01
RMM:  14    -0.116872833264E+04    0.26621E-02   -0.71861E-03  1600   0.147E-01    0.266E-01
RMM:  15    -0.116872826725E+04    0.65395E-04   -0.67823E-04  1361   0.365E-02
   1 F= -.11757812E+04 E0= -.11757705E+04  d E =-.117578E+04  mag=    -0.5744
       N       E                     dE             d eps       ncg     rms          rms(c)
DAV:   1    -0.116873160370E+04   -0.32711E-02   -0.43349E-01  1764   0.103E+00    0.339E-01
RMM:   2    -0.116873117826E+04    0.42544E-03   -0.11480E-02  1584   0.148E-01    0.298E-01
RMM:   3    -0.116872843242E+04    0.27458E-02   -0.28120E-03  1584   0.667E-02    0.202E-01
RMM:   4    -0.116872685879E+04    0.15736E-02   -0.64216E-03  1584   0.901E-02    0.902E-02
RMM:   5    -0.116872693656E+04   -0.77769E-04   -0.44771E-04  1283   0.307E-02
   2 F= -.11757802E+04 E0= -.11757726E+04  d E =0.102533E-02  mag=    -0.7362
       N       E                     dE             d eps       ncg     rms          rms(c)
DAV:   1    -0.116873072525E+04   -0.38665E-02   -0.19082E-01  1656   0.677E-01    0.193E-01
RMM:   2    -0.116873044988E+04    0.27536E-03   -0.40702E-03  1585   0.945E-02    0.173E-01
RMM:   3    -0.116872943704E+04    0.10128E-02   -0.85689E-04  1584   0.370E-02    0.118E-01
RMM:   4    -0.116872877915E+04    0.65789E-03   -0.24709E-03  1584   0.553E-02    0.436E-02
RMM:   5    -0.116872879686E+04   -0.17710E-04   -0.66709E-05  1009   0.143E-02
   3 F= -.11757819E+04 E0= -.11757750E+04  d E =-.632680E-03  mag=    -0.7711
