       N       E                     dE             d eps       ncg     rms          rms(c)
DAV:   1     0.479774139262E+04    0.47977E+04   -0.17560E+05  1856   0.942E+02
DAV:   2    -0.665396517011E+02   -0.48643E+04   -0.44466E+04  2464   0.213E+02
DAV:   3    -0.119785953956E+04   -0.11313E+04   -0.11244E+04  1952   0.111E+02
DAV:   4    -0.124577709039E+04   -0.47918E+02   -0.47656E+02  2016   0.306E+01
DAV:   5    -0.124694552133E+04   -0.11684E+01   -0.11655E+01  2240   0.442E+00    0.728E+01
RMM:   6    -0.122755026875E+04    0.19395E+02   -0.16397E+01  1566   0.464E+00    0.504E+01
RMM:   7    -0.120727589249E+04    0.20274E+02   -0.22331E+01  1542   0.561E+00    0.372E+01
RMM:   8    -0.118083871573E+04    0.26437E+02   -0.41913E+01  1571   0.822E+00    0.232E+01
RMM:   9    -0.117674972573E+04    0.40890E+01   -0.21863E+01  1538   0.641E+00    0.141E+01
RMM:  10    -0.117758046826E+04   -0.83074E+00   -0.57097E+00  1575   0.364E+00    0.921E+00
RMM:  11    -0.117778168492E+04   -0.20122E+00   -0.12107E+00  1720   0.169E+00    0.727E+00
RMM:  12    -0.117711341343E+04    0.66827E+00   -0.11263E+00  1538   0.143E+00    0.304E+00
RMM:  13    -0.117703460547E+04    0.78808E-01   -0.59448E-01  1542   0.103E+00    0.880E-01
RMM:  14    -0.117703725990E+04   -0.26544E-02   -0.59461E-02  1610   0.404E-01    0.580E-01
RMM:  15    -0.117703897516E+04   -0.17153E-02   -0.15045E-02  1763   0.179E-01    0.568E-01
RMM:  16    -0.117703913196E+04   -0.15679E-03   -0.23388E-03  1806   0.702E-02    0.609E-01
RMM:  17    -0.117703955742E+04   -0.42547E-03   -0.30201E-03  1582   0.663E-02    0.671E-01
RMM:  18    -0.117704057499E+04   -0.10176E-02   -0.28022E-03  1550   0.685E-02    0.945E-01
RMM:  19    -0.117703957286E+04    0.10021E-02   -0.64773E-04  1564   0.348E-02    0.664E-01
RMM:  20    -0.117703881237E+04    0.76049E-03   -0.20618E-03  1583   0.496E-02    0.212E-01
RMM:  21    -0.117703880180E+04    0.10566E-04   -0.12771E-03  1581   0.418E-02    0.923E-02
RMM:  22    -0.117703884395E+04   -0.42144E-04   -0.97489E-05  1572   0.149E-02    0.814E-02
RMM:  23    -0.117703885740E+04   -0.13453E-04   -0.54660E-05  1567   0.918E-03    0.346E-02
RMM:  24    -0.117703887595E+04   -0.18545E-04   -0.30111E-05  1557   0.728E-03    0.175E-02
RMM:  25    -0.117703888321E+04   -0.72645E-05   -0.10902E-05  1552   0.437E-03    0.170E-02
RMM:  26    -0.117703888452E+04   -0.13086E-05   -0.22719E-06  1082   0.207E-03    0.843E-03
RMM:  27    -0.117703888824E+04   -0.37253E-05   -0.39664E-06  1191   0.259E-03    0.459E-03
RMM:  28    -0.117703888752E+04    0.72515E-06   -0.74293E-07  1014   0.123E-03
   1 F= -.11841305E+04 E0= -.11841305E+04  d E =-.118413E+04  mag=     0.9999
       N       E                     dE             d eps       ncg     rms          rms(c)
DAV:   1    -0.117703704938E+04    0.18389E-02   -0.26018E-01  1792   0.101E+00    0.151E-01
RMM:   2    -0.117703826270E+04   -0.12133E-02   -0.13163E-02  1566   0.155E-01    0.134E-01
RMM:   3    -0.117703848549E+04   -0.22279E-03   -0.30817E-03  1690   0.636E-02    0.115E-01
RMM:   4    -0.117703843894E+04    0.46546E-04   -0.38568E-04  1841   0.254E-02    0.100E-01
RMM:   5    -0.117703832391E+04    0.11503E-03   -0.41255E-04  1563   0.252E-02    0.506E-02
RMM:   6    -0.117703834668E+04   -0.22765E-04   -0.23414E-04  1564   0.191E-02    0.391E-02
RMM:   7    -0.117703832912E+04    0.17556E-04   -0.24456E-05  1535   0.784E-03    0.304E-02
RMM:   8    -0.117703832362E+04    0.55083E-05   -0.40334E-05  1542   0.693E-03    0.170E-02
RMM:   9    -0.117703832535E+04   -0.17307E-05   -0.70419E-06  1474   0.390E-03    0.113E-02
RMM:  10    -0.117703832456E+04    0.78214E-06   -0.60213E-06  1434   0.300E-03
   2 F= -.11841303E+04 E0= -.11841303E+04  d E =0.205778E-03  mag=     1.0000
       N       E                     dE             d eps       ncg     rms          rms(c)
DAV:   1    -0.117703888908E+04   -0.56374E-03   -0.78619E-02  1824   0.554E-01    0.841E-02
RMM:   2    -0.117703918170E+04   -0.29261E-03   -0.32922E-03  1555   0.810E-02    0.731E-02
RMM:   3    -0.117703923018E+04   -0.48480E-04   -0.77501E-04  1617   0.318E-02    0.612E-02
RMM:   4    -0.117703921205E+04    0.18129E-04   -0.86442E-05  1754   0.131E-02    0.514E-02
RMM:   5    -0.117703918202E+04    0.30027E-04   -0.13754E-04  1562   0.147E-02    0.230E-02
RMM:   6    -0.117703918669E+04   -0.46735E-05   -0.44913E-05  1553   0.894E-03    0.187E-02
RMM:   7    -0.117703918252E+04    0.41711E-05   -0.61317E-06  1435   0.381E-03    0.126E-02
RMM:   8    -0.117703918240E+04    0.12537E-06   -0.11607E-05  1475   0.375E-03    0.639E-03
RMM:   9    -0.117703918226E+04    0.14322E-06   -0.20018E-06  1065   0.203E-03
   3 F= -.11841310E+04 E0= -.11841310E+04  d E =-.455956E-03  mag=     1.0000
       N       E                     dE             d eps       ncg     rms          rms(c)
DAV:   1    -0.117703883440E+04    0.34800E-03   -0.17035E-01  2016   0.839E-01    0.113E-01
RMM:   2    -0.117703952330E+04   -0.68891E-03   -0.73174E-03  1542   0.111E-01    0.846E-02
RMM:   3    -0.117703969865E+04   -0.17535E-03   -0.19488E-03  1584   0.445E-02    0.680E-02
RMM:   4    -0.117703969527E+04    0.33827E-05   -0.16049E-04  1787   0.177E-02    0.605E-02
RMM:   5    -0.117703966951E+04    0.25760E-04   -0.93098E-05  1542   0.130E-02    0.294E-02
RMM:   6    -0.117703967760E+04   -0.80879E-05   -0.71014E-05  1554   0.109E-02    0.197E-02
RMM:   7    -0.117703967487E+04    0.27328E-05   -0.76575E-06  1520   0.442E-03    0.139E-02
RMM:   8    -0.117703967515E+04   -0.28387E-06   -0.55513E-06  1360   0.290E-03
   4 F= -.11841316E+04 E0= -.11841316E+04  d E =-.601229E-03  mag=     1.0000
       N       E                     dE             d eps       ncg     rms          rms(c)
DAV:   1    -0.117703965647E+04    0.18392E-04   -0.27377E-03  1920   0.106E-01    0.148E-02
RMM:   2    -0.117703966755E+04   -0.11077E-04   -0.11765E-04  1542   0.140E-02    0.112E-02
RMM:   3    -0.117703967074E+04   -0.31902E-05   -0.31494E-05  1391   0.563E-03    0.924E-03
RMM:   4    -0.117703967093E+04   -0.18532E-06   -0.24769E-06  1085   0.219E-03
   5 F= -.11841316E+04 E0= -.11841316E+04  d E =-.610740E-03  mag=     1.0000
       N       E                     dE             d eps       ncg     rms          rms(c)
DAV:   1    -0.117703990767E+04   -0.23693E-03   -0.57857E-02  1824   0.433E-01    0.560E-02
RMM:   2    -0.117704002949E+04   -0.12181E-03   -0.14761E-03  1544   0.568E-02    0.463E-02
RMM:   3    -0.117704005154E+04   -0.22050E-04   -0.33321E-04  1582   0.235E-02    0.391E-02
RMM:   4    -0.117704004881E+04    0.27288E-05   -0.43510E-05  1719   0.995E-03    0.328E-02
RMM:   5    -0.117704004691E+04    0.18974E-05   -0.43899E-05  1543   0.875E-03    0.131E-02
RMM:   6    -0.117704005082E+04   -0.39146E-05   -0.14765E-05  1554   0.531E-03    0.861E-03
RMM:   7    -0.117704004990E+04    0.92889E-06   -0.28380E-06  1158   0.244E-03
   6 F= -.11841320E+04 E0= -.11841320E+04  d E =-.420924E-03  mag=     1.0000
