       N       E                     dE             d eps       ncg     rms          rms(c)
DAV:   1     0.467732799923E+04    0.46773E+04   -0.17397E+05  1908   0.907E+02
DAV:   2    -0.118584920159E+03   -0.47959E+04   -0.43866E+04  2556   0.206E+02
DAV:   3    -0.119394965226E+04   -0.10754E+04   -0.10703E+04  2088   0.106E+02
DAV:   4    -0.123730332627E+04   -0.43354E+02   -0.43146E+02  2052   0.292E+01
DAV:   5    -0.123853305803E+04   -0.12297E+01   -0.12262E+01  2268   0.458E+00    0.652E+01
RMM:   6    -0.122338794185E+04    0.15145E+02   -0.86736E+00  1605   0.327E+00    0.528E+01
RMM:   7    -0.118592972502E+04    0.37458E+02   -0.72548E+01  1616   0.953E+00    0.334E+01
RMM:   8    -0.118087109867E+04    0.50586E+01   -0.48570E+00  1629   0.279E+00    0.272E+01
RMM:   9    -0.117247677345E+04    0.83943E+01   -0.32824E+01  1593   0.641E+00    0.165E+01
RMM:  10    -0.117432312038E+04   -0.18463E+01   -0.99964E+00  1586   0.385E+00    0.126E+01
RMM:  11    -0.117216539020E+04    0.21577E+01   -0.23049E+00  1686   0.171E+00    0.629E+00
RMM:  12    -0.117160878675E+04    0.55660E+00   -0.27529E+00  1597   0.131E+00    0.653E+00
RMM:  13    -0.117130541893E+04    0.30337E+00   -0.22726E-01  1651   0.522E-01    0.409E+00
RMM:  14    -0.117117880473E+04    0.12661E+00   -0.21464E-01  1586   0.487E-01    0.268E+00
RMM:  15    -0.117110023989E+04    0.78565E-01   -0.30455E-01  1600   0.555E-01    0.134E+00
RMM:  16    -0.117109873242E+04    0.15075E-02   -0.42284E-02  1649   0.244E-01    0.776E-01
RMM:  17    -0.117110326701E+04   -0.45346E-02   -0.59762E-03  1590   0.805E-02    0.705E-01
RMM:  18    -0.117110093622E+04    0.23308E-02   -0.34448E-03  1500   0.576E-02    0.315E-01
RMM:  19    -0.117110088688E+04    0.49341E-04   -0.26395E-03  1597   0.536E-02    0.112E-01
RMM:  20    -0.117110079161E+04    0.95266E-04   -0.29130E-04  1118   0.235E-02
   1 F= -.11781320E+04 E0= -.11781316E+04  d E =-.117813E+04  mag=     2.0035
       N       E                     dE             d eps       ncg     rms          rms(c)
DAV:   1    -0.117062080761E+04    0.48008E+00   -0.45668E+01  1800   0.623E+00    0.733E+00
RMM:   2    -0.117095131161E+04   -0.33050E+00   -0.36448E+00  1681   0.106E+00    0.742E+00
RMM:   3    -0.117091832737E+04    0.32984E-01   -0.16089E-01  1612   0.276E-01    0.763E+00
RMM:   4    -0.117086599925E+04    0.52328E-01   -0.11166E-01  1632   0.296E-01    0.388E+00
RMM:   5    -0.117086317623E+04    0.28230E-02   -0.72114E-02  1626   0.238E-01    0.148E+00
RMM:   6    -0.117086524033E+04   -0.20641E-02   -0.14069E-02  1589   0.108E-01    0.746E-01
RMM:   7    -0.117086282641E+04    0.24139E-02   -0.35953E-03  1483   0.634E-02    0.656E-01
RMM:   8    -0.117086230814E+04    0.51827E-03   -0.49380E-03  1541   0.641E-02    0.387E-01
RMM:   9    -0.117086223042E+04    0.77721E-04   -0.75814E-04  1241   0.329E-02
   2 F= -.11778989E+04 E0= -.11778989E+04  d E =0.233034E+00  mag=     1.9998
       N       E                     dE             d eps       ncg     rms          rms(c)
DAV:   1    -0.117101721463E+04   -0.15491E+00   -0.24036E+01  1800   0.481E+00    0.562E+00
RMM:   2    -0.117117771867E+04   -0.16050E+00   -0.18701E+00  1664   0.770E-01    0.542E+00
RMM:   3    -0.117114005002E+04    0.37669E-01   -0.99921E-02  1627   0.227E-01    0.474E+00
RMM:   4    -0.117114108356E+04   -0.10335E-02   -0.16051E-01  1642   0.332E-01    0.787E-01
RMM:   5    -0.117113394477E+04    0.71388E-02   -0.87355E-03  1598   0.107E-01    0.738E-01
RMM:   6    -0.117113271719E+04    0.12276E-02   -0.39324E-03  1570   0.600E-02    0.391E-01
RMM:   7    -0.117112998969E+04    0.27275E-02   -0.56315E-03  1491   0.697E-02    0.353E-01
RMM:   8    -0.117112975443E+04    0.23526E-03   -0.18644E-03  1259   0.422E-02    0.105E-01
RMM:   9    -0.117112968998E+04    0.64454E-04   -0.31170E-04  1066   0.205E-02
   3 F= -.11781624E+04 E0= -.11781623E+04  d E =-.304128E-01  mag=     2.0000
