       N       E                     dE             d eps       ncg     rms          rms(c)
DAV:   1     0.505147756788E+04    0.50515E+04   -0.17026E+05  1872   0.909E+02
DAV:   2     0.649450019734E+02   -0.49865E+04   -0.45368E+04  2592   0.210E+02
DAV:   3    -0.116771713626E+04   -0.12327E+04   -0.12232E+04  2196   0.116E+02
DAV:   4    -0.123644762279E+04   -0.68730E+02   -0.68366E+02  2340   0.354E+01
DAV:   5    -0.123827744794E+04   -0.18298E+01   -0.18233E+01  2304   0.529E+00    0.695E+01
RMM:   6    -0.121608013815E+04    0.22197E+02   -0.13199E+01  2149   0.668E+00    0.532E+01
RMM:   7    -0.119408914517E+04    0.21991E+02   -0.21457E+01  2097   0.596E+00    0.407E+01
RMM:   8    -0.116943340838E+04    0.24656E+02   -0.38574E+01  2075   0.818E+00    0.343E+01
RMM:   9    -0.116884982679E+04    0.58358E+00   -0.41376E+00  2111   0.745E+00    0.249E+01
RMM:  10    -0.116654386828E+04    0.23060E+01   -0.15564E+01  2092   0.510E+00    0.142E+01
RMM:  11    -0.116757951068E+04   -0.10356E+01   -0.53115E+00  2091   0.412E+00    0.853E+00
RMM:  12    -0.116699080598E+04    0.58870E+00   -0.46714E-01  2090   0.155E+00    0.600E+00
RMM:  13    -0.116663961828E+04    0.35119E+00   -0.12232E+00  2072   0.138E+00    0.269E+00
RMM:  14    -0.116653771453E+04    0.10190E+00   -0.29028E-01  2073   0.169E+00    0.151E+00
RMM:  15    -0.116653790395E+04   -0.18943E-03   -0.16334E-01  2098   0.529E-01    0.122E+00
RMM:  16    -0.116653379823E+04    0.41057E-02   -0.95288E-03  1964   0.270E-01    0.108E+00
RMM:  17    -0.116653307397E+04    0.72426E-03   -0.77440E-03  1942   0.162E-01    0.102E+00
RMM:  18    -0.116653349802E+04   -0.42404E-03   -0.22236E-03  1472   0.139E-01    0.103E+00
RMM:  19    -0.116653358812E+04   -0.90104E-04   -0.84027E-04  1260   0.129E-01
   1 F= -.11737585E+04 E0= -.11737585E+04  d E =-.117376E+04  mag=     2.0140
       N       E                     dE             d eps       ncg     rms          rms(c)
DAV:   1    -0.116653401797E+04   -0.51995E-03   -0.44778E-01  2124   0.135E+00    0.134E+00
RMM:   2    -0.116653518603E+04   -0.11681E-02   -0.19886E-02  2278   0.196E-01    0.124E+00
RMM:   3    -0.116653342657E+04    0.17595E-02   -0.40249E-03  1754   0.309E-01    0.773E-01
RMM:   4    -0.116653354091E+04   -0.11434E-03   -0.72574E-03  2015   0.168E-01    0.233E-01
RMM:   5    -0.116653336938E+04    0.17153E-03   -0.47016E-04  1148   0.113E-01    0.156E-01
RMM:   6    -0.116653336984E+04   -0.46760E-06   -0.25131E-04  1138   0.831E-02
   2 F= -.11737584E+04 E0= -.11737584E+04  d E =0.251237E-04  mag=     2.0006
       N       E                     dE             d eps       ncg     rms          rms(c)
DAV:   1    -0.116653488584E+04   -0.15165E-02   -0.95141E-02  2088   0.641E-01    0.248E-01
RMM:   2    -0.116653493841E+04   -0.52566E-04   -0.39114E-03  2144   0.892E-02    0.255E-01
RMM:   3    -0.116653489464E+04    0.43767E-04   -0.68201E-04  1218   0.212E-01
   3 F= -.11737599E+04 E0= -.11737599E+04  d E =-.140782E-02  mag=     1.9999
       N       E                     dE             d eps       ncg     rms          rms(c)
DAV:   1    -0.116653693299E+04   -0.19946E-02   -0.11496E-01  2448   0.594E-01    0.284E-01
RMM:   2    -0.116653622094E+04    0.71205E-03   -0.20176E-03  2095   0.724E-02    0.286E-01
RMM:   3    -0.116653587973E+04    0.34121E-03   -0.39661E-04  1169   0.149E-01    0.232E-01
RMM:   4    -0.116653412022E+04    0.17595E-02   -0.36897E-03  1992   0.104E-01    0.113E-01
RMM:   5    -0.116653405677E+04    0.63443E-04   -0.91379E-04  1574   0.994E-02
   4 F= -.11737586E+04 E0= -.11737586E+04  d E =0.124791E-02  mag=     2.0001
       N       E                     dE             d eps       ncg     rms          rms(c)
DAV:   1    -0.116653468759E+04   -0.56737E-03   -0.14377E-02  2232   0.230E-01    0.904E-02
RMM:   2    -0.116653459798E+04    0.89602E-04   -0.21821E-04  1165   0.271E-02
   5 F= -.11737593E+04 E0= -.11737593E+04  d E =0.587027E-03  mag=     2.0000
