       N       E                     dE             d eps       ncg     rms          rms(c)
DAV:   1     0.491206108795E+04    0.49121E+04   -0.17082E+05  1836   0.910E+02
DAV:   2    -0.677631321922E+02   -0.49798E+04   -0.45497E+04  2556   0.209E+02
DAV:   3    -0.119981548787E+04   -0.11321E+04   -0.11260E+04  2160   0.110E+02
DAV:   4    -0.124508755650E+04   -0.45272E+02   -0.45057E+02  2052   0.296E+01
DAV:   5    -0.124637007863E+04   -0.12825E+01   -0.12802E+01  2412   0.463E+00    0.684E+01
RMM:   6    -0.122776856885E+04    0.18602E+02   -0.26286E+01  1592   0.559E+00    0.555E+01
RMM:   7    -0.121137849504E+04    0.16390E+02   -0.97703E+00  1585   0.371E+00    0.427E+01
RMM:   8    -0.118552173636E+04    0.25857E+02   -0.33417E+01  1584   0.680E+00    0.277E+01
RMM:   9    -0.117566363885E+04    0.98581E+01   -0.19793E+01  1587   0.556E+00    0.190E+01
RMM:  10    -0.117663705604E+04   -0.97342E+00   -0.15614E+01  1584   0.479E+00    0.949E+00
RMM:  11    -0.117651938530E+04    0.11767E+00   -0.13881E+00  1626   0.209E+00    0.693E+00
RMM:  12    -0.117604577117E+04    0.47361E+00   -0.38394E-01  1587   0.675E-01    0.561E+00
RMM:  13    -0.117571696302E+04    0.32881E+00   -0.14105E+00  1584   0.137E+00    0.206E+00
RMM:  14    -0.117567128482E+04    0.45678E-01   -0.77619E-02  1623   0.502E-01    0.156E+00
RMM:  15    -0.117566766880E+04    0.36160E-02   -0.24879E-02  1606   0.158E-01    0.118E+00
RMM:  16    -0.117566828486E+04   -0.61606E-03   -0.51440E-03  1585   0.107E-01    0.976E-01
RMM:  17    -0.117566837845E+04   -0.93588E-04   -0.20604E-03  1586   0.596E-02    0.700E-01
RMM:  18    -0.117566818490E+04    0.19354E-03   -0.17042E-03  1481   0.578E-02    0.380E-01
RMM:  19    -0.117566812676E+04    0.58138E-04   -0.91956E-04  1363   0.356E-02
   1 F= -.11830284E+04 E0= -.11830284E+04  d E =-.118303E+04  mag=     1.0007
       N       E                     dE             d eps       ncg     rms          rms(c)
DAV:   1    -0.117566829290E+04   -0.10800E-03   -0.43650E-01  1728   0.105E+00    0.272E-01
RMM:   2    -0.117566891341E+04   -0.62051E-03   -0.14607E-02  1598   0.170E-01    0.238E-01
RMM:   3    -0.117566802773E+04    0.88568E-03   -0.11055E-03  1624   0.574E-02    0.186E-01
RMM:   4    -0.117566719893E+04    0.82880E-03   -0.10071E-03  1577   0.367E-02    0.125E-01
RMM:   5    -0.117566680411E+04    0.39483E-03   -0.20156E-03  1584   0.507E-02    0.541E-02
RMM:   6    -0.117566678216E+04    0.21950E-04   -0.13028E-04  1052   0.198E-02
   2 F= -.11830274E+04 E0= -.11830274E+04  d E =0.988312E-03  mag=     1.0001
       N       E                     dE             d eps       ncg     rms          rms(c)
DAV:   1    -0.117566956845E+04   -0.27643E-02   -0.15629E-01  1584   0.628E-01    0.144E-01
RMM:   2    -0.117566958589E+04   -0.17448E-04   -0.39041E-03  1584   0.960E-02    0.133E-01
RMM:   3    -0.117566928278E+04    0.30311E-03   -0.23977E-04  1143   0.294E-02    0.126E-01
RMM:   4    -0.117566912134E+04    0.16144E-03   -0.11414E-04   993   0.174E-02    0.102E-01
RMM:   5    -0.117566871582E+04    0.40552E-03   -0.15161E-03  1581   0.440E-02    0.321E-02
RMM:   6    -0.117566871745E+04   -0.16263E-05   -0.67733E-05  1007   0.178E-02
   3 F= -.11830291E+04 E0= -.11830291E+04  d E =-.731769E-03  mag=     1.0000
