       N       E                     dE             d eps       ncg     rms          rms(c)
DAV:   1     0.483493796227E+04    0.48349E+04   -0.17213E+05  1872   0.905E+02
DAV:   2    -0.770998201363E+02   -0.49120E+04   -0.44753E+04  2520   0.205E+02
DAV:   3    -0.118886766559E+04   -0.11118E+04   -0.11055E+04  2124   0.108E+02
DAV:   4    -0.123360258077E+04   -0.44735E+02   -0.44523E+02  2052   0.284E+01
DAV:   5    -0.123475613295E+04   -0.11536E+01   -0.11508E+01  2304   0.422E+00    0.660E+01
RMM:   6    -0.121957425793E+04    0.15182E+02   -0.30498E+01  1584   0.513E+00    0.538E+01
RMM:   7    -0.120408891396E+04    0.15485E+02   -0.73009E+00  1584   0.293E+00    0.430E+01
RMM:   8    -0.117744931271E+04    0.26640E+02   -0.31218E+01  1584   0.637E+00    0.281E+01
RMM:   9    -0.116539308079E+04    0.12056E+02   -0.20816E+01  1584   0.519E+00    0.196E+01
RMM:  10    -0.116566270032E+04   -0.26962E+00   -0.17811E+01  1584   0.472E+00    0.911E+00
RMM:  11    -0.116564535873E+04    0.17342E-01   -0.11917E+00  1616   0.135E+00    0.720E+00
RMM:  12    -0.116527837434E+04    0.36698E+00   -0.12086E+00  1584   0.106E+00    0.409E+00
RMM:  13    -0.116483529880E+04    0.44308E+00   -0.60691E-01  1584   0.847E-01    0.178E+00
RMM:  14    -0.116478651066E+04    0.48788E-01   -0.16508E-01  1584   0.433E-01    0.941E-01
RMM:  15    -0.116478440695E+04    0.21037E-02   -0.20391E-02  1634   0.156E-01    0.467E-01
RMM:  16    -0.116478387146E+04    0.53549E-03   -0.53449E-03  1575   0.787E-02    0.264E-01
RMM:  17    -0.116478435599E+04   -0.48453E-03   -0.37782E-03  1584   0.725E-02    0.185E-01
RMM:  18    -0.116478421836E+04    0.13762E-03   -0.62992E-04  1304   0.280E-02    0.107E-01
RMM:  19    -0.116478423347E+04   -0.15107E-04   -0.24482E-04  1160   0.181E-02
   1 F= -.11718585E+04 E0= -.11718585E+04  d E =-.117186E+04  mag=     0.9964
       N       E                     dE             d eps       ncg     rms          rms(c)
DAV:   1    -0.116478062235E+04    0.35960E-02   -0.98310E-01  1692   0.159E+00    0.388E-01
RMM:   2    -0.116478521083E+04   -0.45885E-02   -0.49268E-02  1584   0.247E-01    0.378E-01
RMM:   3    -0.116478478610E+04    0.42473E-03   -0.19969E-03  1413   0.427E-02    0.353E-01
RMM:   4    -0.116478425842E+04    0.52768E-03   -0.18408E-03  1584   0.484E-02    0.160E-01
RMM:   5    -0.116478427117E+04   -0.12755E-04   -0.70095E-04  1539   0.302E-02
   2 F= -.11718584E+04 E0= -.11718584E+04  d E =0.541104E-04  mag=     1.0002
       N       E                     dE             d eps       ncg     rms          rms(c)
DAV:   1    -0.116478467494E+04   -0.41652E-03   -0.25363E-01  1728   0.811E-01    0.183E-01
RMM:   2    -0.116478581248E+04   -0.11375E-02   -0.12507E-02  1581   0.124E-01    0.177E-01
RMM:   3    -0.116478567509E+04    0.13739E-03   -0.43715E-04  1120   0.205E-02    0.162E-01
RMM:   4    -0.116478548330E+04    0.19179E-03   -0.72002E-04  1509   0.303E-02    0.685E-02
RMM:   5    -0.116478548295E+04    0.34571E-06   -0.12571E-04  1042   0.142E-02
   3 F= -.11718597E+04 E0= -.11718597E+04  d E =-.120218E-02  mag=     1.0000
       N       E                     dE             d eps       ncg     rms          rms(c)
DAV:   1    -0.116478401440E+04    0.14689E-02   -0.49089E-01  1800   0.118E+00    0.225E-01
RMM:   2    -0.116478610223E+04   -0.20878E-02   -0.23319E-02  1584   0.178E-01    0.196E-01
RMM:   3    -0.116478579189E+04    0.31034E-03   -0.85568E-04  1226   0.316E-02    0.167E-01
RMM:   4    -0.116478557041E+04    0.22148E-03   -0.13168E-03  1567   0.404E-02    0.663E-02
RMM:   5    -0.116478558899E+04   -0.18583E-04   -0.10594E-04  1053   0.135E-02
   4 F= -.11718596E+04 E0= -.11718596E+04  d E =0.139019E-03  mag=     1.0000
       N       E                     dE             d eps       ncg     rms          rms(c)
DAV:   1    -0.116478575770E+04   -0.18729E-03   -0.14336E-01  1836   0.635E-01    0.118E-01
RMM:   2    -0.116478630022E+04   -0.54252E-03   -0.63721E-03  1580   0.936E-02    0.102E-01
RMM:   3    -0.116478618681E+04    0.11341E-03   -0.22011E-04  1067   0.167E-02    0.866E-02
RMM:   4    -0.116478609468E+04    0.92127E-04   -0.50082E-04  1418   0.251E-02
   5 F= -.11718602E+04 E0= -.11718602E+04  d E =-.499465E-03  mag=     1.0000
