       N       E                     dE             d eps       ncg     rms          rms(c)
DAV:   1     0.498718044373E+04    0.49872E+04   -0.17714E+05  1872   0.929E+02
DAV:   2    -0.505182315997E+02   -0.50377E+04   -0.46211E+04  2556   0.210E+02
DAV:   3    -0.120085498157E+04   -0.11503E+04   -0.11445E+04  2016   0.110E+02
DAV:   4    -0.124891239772E+04   -0.48057E+02   -0.47804E+02  1944   0.303E+01
DAV:   5    -0.125022955719E+04   -0.13172E+01   -0.13136E+01  2268   0.478E+00    0.675E+01
RMM:   6    -0.123190580453E+04    0.18324E+02   -0.22978E+01  1584   0.470E+00    0.508E+01
RMM:   7    -0.121348431182E+04    0.18421E+02   -0.11958E+01  1584   0.401E+00    0.395E+01
RMM:   8    -0.118621753366E+04    0.27267E+02   -0.38508E+01  1584   0.713E+00    0.249E+01
RMM:   9    -0.117977791114E+04    0.64396E+01   -0.19893E+01  1584   0.513E+00    0.159E+01
RMM:  10    -0.118126797506E+04   -0.14901E+01   -0.10112E+01  1585   0.371E+00    0.857E+00
RMM:  11    -0.118083138908E+04    0.43659E+00   -0.37908E-01  1622   0.840E-01    0.631E+00
RMM:  12    -0.118041255100E+04    0.41884E+00   -0.10015E+00  1584   0.111E+00    0.302E+00
RMM:  13    -0.118028489046E+04    0.12766E+00   -0.30252E-01  1584   0.602E-01    0.830E-01
RMM:  14    -0.118027897803E+04    0.59124E-02   -0.61111E-02  1585   0.287E-01    0.485E-01
RMM:  15    -0.118027991477E+04   -0.93674E-03   -0.71914E-03  1620   0.107E-01    0.281E-01
RMM:  16    -0.118027998445E+04   -0.69680E-04   -0.38684E-03  1586   0.737E-02    0.155E-01
RMM:  17    -0.118028023948E+04   -0.25503E-03   -0.66752E-04  1350   0.321E-02    0.959E-02
RMM:  18    -0.118028027939E+04   -0.39914E-04   -0.24821E-04  1104   0.189E-02
   1 F= -.11875008E+04 E0= -.11875004E+04  d E =-.118750E+04  mag=    -0.9958
       N       E                     dE             d eps       ncg     rms          rms(c)
DAV:   1    -0.118027756094E+04    0.26785E-02   -0.11805E+00  1656   0.163E+00    0.463E-01
RMM:   2    -0.118028027258E+04   -0.27116E-02   -0.35471E-02  1584   0.243E-01    0.443E-01
RMM:   3    -0.118027978809E+04    0.48449E-03   -0.15061E-03  1548   0.447E-02    0.402E-01
RMM:   4    -0.118027937762E+04    0.41047E-03   -0.32724E-03  1584   0.666E-02    0.127E-01
RMM:   5    -0.118027948466E+04   -0.10704E-03   -0.32968E-04  1199   0.236E-02    0.710E-02
RMM:   6    -0.118027946001E+04    0.24656E-04   -0.11661E-04  1032   0.135E-02
   2 F= -.11875011E+04 E0= -.11875006E+04  d E =-.279516E-03  mag=    -0.9936
       N       E                     dE             d eps       ncg     rms          rms(c)
DAV:   1    -0.118028125349E+04   -0.17688E-02   -0.29498E-01  1728   0.814E-01    0.230E-01
RMM:   2    -0.118028181838E+04   -0.56489E-03   -0.82693E-03  1586   0.119E-01    0.219E-01
RMM:   3    -0.118028165253E+04    0.16585E-03   -0.28663E-04  1129   0.211E-02    0.196E-01
RMM:   4    -0.118028151174E+04    0.14079E-03   -0.11800E-03  1572   0.404E-02    0.532E-02
RMM:   5    -0.118028153849E+04   -0.26748E-04   -0.62282E-05   997   0.113E-02
   3 F= -.11875026E+04 E0= -.11875022E+04  d E =-.180431E-02  mag=    -0.9943
       N       E                     dE             d eps       ncg     rms          rms(c)
DAV:   1    -0.118028232634E+04   -0.81460E-03   -0.55372E-01  1656   0.105E+00    0.297E-01
RMM:   2    -0.118028288033E+04   -0.55400E-03   -0.11220E-02  1584   0.136E-01    0.271E-01
RMM:   3    -0.118028257657E+04    0.30376E-03   -0.40555E-04  1214   0.257E-02    0.233E-01
RMM:   4    -0.118028242341E+04    0.15317E-03   -0.20402E-03  1584   0.512E-02    0.661E-02
RMM:   5    -0.118028246414E+04   -0.40731E-04   -0.69020E-05  1019   0.116E-02
   4 F= -.11875042E+04 E0= -.11875037E+04  d E =-.154954E-02  mag=    -0.9937
       N       E                     dE             d eps       ncg     rms          rms(c)
DAV:   1    -0.118028258317E+04   -0.15976E-03   -0.98161E-03  1728   0.141E-01    0.416E-02
RMM:   2    -0.118028258006E+04    0.31125E-05   -0.18337E-04  1043   0.176E-02
   5 F= -.11875042E+04 E0= -.11875038E+04  d E =-.158109E-02  mag=    -0.9939
       N       E                     dE             d eps       ncg     rms          rms(c)
DAV:   1    -0.118028282672E+04   -0.24355E-03   -0.22717E-01  1728   0.744E-01    0.114E-01
RMM:   2    -0.118028324905E+04   -0.42233E-03   -0.56431E-03  1584   0.101E-01    0.955E-02
RMM:   3    -0.118028316993E+04    0.79129E-04   -0.17198E-04  1102   0.184E-02
   6 F= -.11875050E+04 E0= -.11875046E+04  d E =-.828336E-03  mag=    -0.9942
       N       E                     dE             d eps       ncg     rms          rms(c)
DAV:   1    -0.118028294807E+04    0.30098E-03   -0.86771E-02  1728   0.460E-01    0.973E-02
RMM:   2    -0.118028307713E+04   -0.12906E-03   -0.21265E-03  1489   0.594E-02    0.844E-02
RMM:   3    -0.118028306006E+04    0.17066E-04   -0.69022E-05  1026   0.121E-02
   7 F= -.11875051E+04 E0= -.11875047E+04  d E =-.870092E-03  mag=    -0.9942
