       N       E                     dE             d eps       ncg     rms          rms(c)
DAV:   1     0.483709284419E+04    0.48371E+04   -0.16989E+05  1836   0.899E+02
DAV:   2    -0.725074362299E+02   -0.49096E+04   -0.44527E+04  2520   0.209E+02
DAV:   3    -0.118494115499E+04   -0.11124E+04   -0.11070E+04  2088   0.109E+02
DAV:   4    -0.123205545017E+04   -0.47114E+02   -0.46894E+02  2052   0.307E+01
DAV:   5    -0.123343450763E+04   -0.13791E+01   -0.13768E+01  2376   0.480E+00    0.701E+01
RMM:   6    -0.121787194089E+04    0.15563E+02   -0.12874E+01  1607   0.389E+00    0.542E+01
RMM:   7    -0.119421172436E+04    0.23660E+02   -0.68922E+01  1608   0.876E+00    0.412E+01
RMM:   8    -0.118677441738E+04    0.74373E+01   -0.37046E+00  1640   0.263E+00    0.308E+01
RMM:   9    -0.117281078378E+04    0.13964E+02   -0.15434E+01  1585   0.446E+00    0.221E+01
RMM:  10    -0.116984873372E+04    0.29621E+01   -0.32006E+01  1584   0.651E+00    0.118E+01
RMM:  11    -0.116966766737E+04    0.18107E+00   -0.13287E+00  1637   0.201E+00    0.818E+00
RMM:  12    -0.116897865350E+04    0.68901E+00   -0.74611E-01  1594   0.935E-01    0.467E+00
RMM:  13    -0.116872847038E+04    0.25018E+00   -0.45862E-01  1603   0.717E-01    0.302E+00
RMM:  14    -0.116862838982E+04    0.10008E+00   -0.58472E-01  1585   0.939E-01    0.193E+00
RMM:  15    -0.116859811371E+04    0.30276E-01   -0.70904E-02  1685   0.384E-01    0.794E-01
RMM:  16    -0.116859659131E+04    0.15224E-02   -0.66480E-03  1755   0.105E-01    0.657E-01
RMM:  17    -0.116859342375E+04    0.31676E-02   -0.34061E-03  1594   0.656E-02    0.430E-01
RMM:  18    -0.116859339745E+04    0.26295E-04   -0.86464E-04  1398   0.429E-02
   1 F= -.11756125E+04 E0= -.11756125E+04  d E =-.117561E+04  mag=     0.0022
       N       E                     dE             d eps       ncg     rms          rms(c)
DAV:   1    -0.116859324380E+04    0.17995E-03   -0.31880E-01  1872   0.965E-01    0.235E-01
RMM:   2    -0.116859381053E+04   -0.56673E-03   -0.13149E-02  1603   0.158E-01    0.231E-01
RMM:   3    -0.116859351314E+04    0.29739E-03   -0.76940E-04  1469   0.492E-02    0.229E-01
RMM:   4    -0.116859289949E+04    0.61365E-03   -0.48253E-04  1478   0.273E-02    0.174E-01
RMM:   5    -0.116859236669E+04    0.53280E-03   -0.29647E-03  1584   0.615E-02    0.545E-02
RMM:   6    -0.116859232469E+04    0.42003E-04   -0.91949E-05  1056   0.227E-02
   2 F= -.11756115E+04 E0= -.11756115E+04  d E =0.100966E-02  mag=     0.0002
       N       E                     dE             d eps       ncg     rms          rms(c)
DAV:   1    -0.116859394200E+04   -0.15753E-02   -0.14695E-01  1656   0.651E-01    0.123E-01
RMM:   2    -0.116859406194E+04   -0.11994E-03   -0.39376E-03  1584   0.923E-02    0.113E-01
RMM:   3    -0.116859390830E+04    0.15365E-03   -0.18130E-04  1130   0.250E-02    0.104E-01
RMM:   4    -0.116859348501E+04    0.42328E-03   -0.11151E-03  1584   0.377E-02    0.422E-02
RMM:   5    -0.116859346950E+04    0.15517E-04   -0.14379E-04  1061   0.201E-02
   3 F= -.11756126E+04 E0= -.11756126E+04  d E =-.904084E-04  mag=    -0.0000
