       N       E                     dE             d eps       ncg     rms          rms(c)
DAV:   1     0.489810937639E+04    0.48981E+04   -0.17261E+05  1872   0.911E+02
DAV:   2    -0.442997714205E+02   -0.49424E+04   -0.44924E+04  2520   0.213E+02
DAV:   3    -0.118540218471E+04   -0.11411E+04   -0.11359E+04  2160   0.112E+02
DAV:   4    -0.123901500512E+04   -0.53613E+02   -0.53383E+02  2088   0.346E+01
DAV:   5    -0.124091094008E+04   -0.18959E+01   -0.18896E+01  2268   0.573E+00    0.707E+01
RMM:   6    -0.122702610425E+04    0.13885E+02   -0.86061E+00  1786   0.355E+00    0.578E+01
RMM:   7    -0.118457860464E+04    0.42447E+02   -0.86494E+01  1829   0.113E+01    0.341E+01
RMM:   8    -0.117686158691E+04    0.77170E+01   -0.18309E+01  1846   0.955E+00    0.215E+01
RMM:   9    -0.117624322090E+04    0.61837E+00   -0.28281E+01  1679   0.673E+00    0.135E+01
RMM:  10    -0.117665427848E+04   -0.41106E+00   -0.37324E+00  1687   0.764E+00    0.102E+01
RMM:  11    -0.117537285566E+04    0.12814E+01   -0.21035E+00  1994   0.138E+00    0.695E+00
RMM:  12    -0.117499989964E+04    0.37296E+00   -0.61102E-01  1712   0.969E-01    0.522E+00
RMM:  13    -0.117481880435E+04    0.18110E+00   -0.91109E-01  1889   0.133E+00    0.178E+00
RMM:  14    -0.117478948486E+04    0.29319E-01   -0.14245E-01  1728   0.764E-01    0.142E+00
RMM:  15    -0.117478342225E+04    0.60626E-02   -0.28516E-02  1863   0.442E-01    0.152E+00
RMM:  16    -0.117478271036E+04    0.71189E-03   -0.60650E-03  1786   0.112E-01    0.139E+00
RMM:  17    -0.117478257533E+04    0.13503E-03   -0.25286E-03  1685   0.112E-01    0.119E+00
RMM:  18    -0.117478141531E+04    0.11600E-02   -0.21164E-03  1569   0.749E-02    0.916E-01
RMM:  19    -0.117478125753E+04    0.15778E-03   -0.71566E-04  1453   0.649E-02    0.807E-01
RMM:  20    -0.117478118124E+04    0.76294E-04   -0.36046E-04  1224   0.474E-02
   1 F= -.11819113E+04 E0= -.11819113E+04  d E =-.118191E+04  mag=     0.0006
       N       E                     dE             d eps       ncg     rms          rms(c)
DAV:   1    -0.117478139030E+04   -0.13277E-03   -0.43598E-01  1764   0.107E+00    0.630E-01
RMM:   2    -0.117478196733E+04   -0.57703E-03   -0.15953E-02  1938   0.188E-01    0.544E-01
RMM:   3    -0.117477982496E+04    0.21424E-02   -0.37676E-03  1673   0.125E-01    0.339E-01
RMM:   4    -0.117477987962E+04   -0.54660E-04   -0.58771E-03  1801   0.117E-01    0.162E-01
RMM:   5    -0.117477988892E+04   -0.93012E-05   -0.56259E-04  1316   0.734E-02
   2 F= -.11819099E+04 E0= -.11819099E+04  d E =0.135824E-02  mag=    -0.0001
       N       E                     dE             d eps       ncg     rms          rms(c)
DAV:   1    -0.117478308512E+04   -0.32055E-02   -0.15012E-01  1764   0.627E-01    0.198E-01
RMM:   2    -0.117478287816E+04    0.20696E-03   -0.40991E-03  1815   0.103E-01    0.178E-01
RMM:   3    -0.117478180982E+04    0.10683E-02   -0.13965E-03  1683   0.807E-02    0.108E-01
RMM:   4    -0.117478150609E+04    0.30372E-03   -0.16353E-03  1614   0.620E-02    0.579E-02
RMM:   5    -0.117478150544E+04    0.65118E-06   -0.26190E-04  1202   0.625E-02
   3 F= -.11819116E+04 E0= -.11819116E+04  d E =-.294574E-03  mag=     0.0000
