       N       E                     dE             d eps       ncg     rms          rms(c)
DAV:   1     0.486274036020E+04    0.48627E+04   -0.17172E+05  1872   0.905E+02
DAV:   2    -0.547674740626E+02   -0.49175E+04   -0.44657E+04  2520   0.206E+02
DAV:   3    -0.118757726304E+04   -0.11328E+04   -0.11283E+04  2088   0.109E+02
DAV:   4    -0.123433955358E+04   -0.46762E+02   -0.46522E+02  2052   0.302E+01
DAV:   5    -0.123567487815E+04   -0.13353E+01   -0.13319E+01  2340   0.470E+00    0.623E+01
RMM:   6    -0.121838879688E+04    0.17286E+02   -0.87251E+00  1648   0.346E+00    0.509E+01
RMM:   7    -0.120344630917E+04    0.14942E+02   -0.15459E+02  1665   0.133E+01    0.519E+01
RMM:   8    -0.119162017837E+04    0.11826E+02   -0.47562E+00  1771   0.279E+00    0.492E+01
RMM:   9    -0.117565786175E+04    0.15962E+02   -0.32888E+00  1775   0.163E+00    0.286E+01
RMM:  10    -0.116992904177E+04    0.57288E+01   -0.12573E+01  1611   0.402E+00    0.206E+01
RMM:  11    -0.117709137368E+04   -0.71623E+01   -0.20610E+01  1622   0.529E+00    0.163E+01
RMM:  12    -0.117698644091E+04    0.10493E+00   -0.12387E+00  1655   0.237E+00    0.152E+01
RMM:  13    -0.117528352063E+04    0.17029E+01   -0.85504E-01  1671   0.993E-01    0.136E+01
RMM:  14    -0.117264415976E+04    0.26394E+01   -0.97410E-01  1675   0.118E+00    0.121E+01
RMM:  15    -0.117053082069E+04    0.21133E+01   -0.47536E-01  1717   0.867E-01    0.110E+01
RMM:  16    -0.116885778330E+04    0.16730E+01   -0.35483E-01  1844   0.551E-01    0.991E+00
RMM:  17    -0.117070466697E+04   -0.18469E+01   -0.19911E-01  1807   0.448E-01    0.111E+01
RMM:  18    -0.116962283631E+04    0.10818E+01   -0.56981E-02  1756   0.251E-01    0.104E+01
RMM:  19    -0.117084558494E+04   -0.12227E+01   -0.81284E-02  1786   0.285E-01    0.112E+01
RMM:  20    -0.116637359003E+04    0.44720E+01   -0.22542E+00  1817   0.150E+00    0.675E+00
RMM:  21    -0.116631414046E+04    0.59450E-01   -0.25329E-01  1881   0.373E-01    0.631E+00
RMM:  22    -0.116617051254E+04    0.14363E+00   -0.26672E-02  1946   0.139E-01    0.590E+00
RMM:  23    -0.116589952993E+04    0.27098E+00   -0.42947E-02  1827   0.185E-01    0.487E+00
RMM:  24    -0.116726608464E+04   -0.13666E+01   -0.31028E+00  1770   0.141E+00    0.138E+01
RMM:  25    -0.116659122986E+04    0.67485E+00   -0.22292E-01  1816   0.332E-01    0.119E+01
RMM:  26    -0.116639299140E+04    0.19824E+00   -0.90067E-03  1579   0.945E-02    0.110E+01
RMM:  27    -0.116643169896E+04   -0.38708E-01   -0.19211E-03  1241   0.318E-02    0.112E+01
RMM:  28    -0.116601190059E+04    0.41980E+00   -0.31039E-02  1747   0.151E-01    0.847E+00
RMM:  29    -0.116620315292E+04   -0.19125E+00   -0.51923E-03  1513   0.830E-02    0.976E+00
RMM:  30    -0.116628392043E+04   -0.80768E-01   -0.23507E-03  1343   0.479E-02    0.103E+01
RMM:  31    -0.116628353423E+04    0.38619E-03   -0.21399E-04  1102   0.189E-02    0.103E+01
RMM:  32    -0.116633519467E+04   -0.51660E-01   -0.66920E-04  1181   0.239E-02    0.106E+01
RMM:  33    -0.116583997945E+04    0.49522E+00   -0.48787E-02  1767   0.192E-01    0.695E+00
RMM:  34    -0.116569483781E+04    0.14514E+00   -0.30386E-02  1671   0.173E-01    0.514E+00
RMM:  35    -0.116570004418E+04   -0.52064E-02   -0.32153E-03  1492   0.760E-02    0.512E+00
RMM:  36    -0.116588045976E+04   -0.18042E+00   -0.32665E-01  1793   0.534E-01    0.482E+00
RMM:  37    -0.116555144347E+04    0.32902E+00   -0.29798E-01  1735   0.564E-01    0.274E+00
RMM:  38    -0.116577298670E+04   -0.22154E+00   -0.10016E-01  1795   0.279E-01    0.592E+00
RMM:  39    -0.116566844180E+04    0.10454E+00   -0.65750E-03  1700   0.105E-01    0.478E+00
RMM:  40    -0.116566018740E+04    0.82544E-02   -0.91416E-04  1274   0.361E-02    0.469E+00
RMM:  41    -0.116563424211E+04    0.25945E-01   -0.77130E-04  1290   0.318E-02    0.430E+00
RMM:  42    -0.116564395788E+04   -0.97158E-02   -0.10028E-04  1073   0.186E-02    0.442E+00
RMM:  43    -0.116576667079E+04   -0.12271E+00   -0.10311E-02  1601   0.900E-02    0.588E+00
RMM:  44    -0.116594462690E+04   -0.17796E+00   -0.18781E-02  1706   0.118E-01    0.757E+00
RMM:  45    -0.116583558769E+04    0.10904E+00   -0.23332E-03  1455   0.557E-02    0.658E+00
RMM:  46    -0.116595705722E+04   -0.12147E+00   -0.52451E-03  1559   0.643E-02    0.770E+00
RMM:  47    -0.116583677717E+04    0.12028E+00   -0.40604E-03  1597   0.650E-02    0.660E+00
RMM:  48    -0.116597742642E+04   -0.14065E+00   -0.90610E-03  1703   0.950E-02    0.780E+00
RMM:  49    -0.116595029953E+04    0.27127E-01   -0.59145E-04  1212   0.317E-02    0.761E+00
RMM:  50    -0.116572276203E+04    0.22754E+00   -0.20755E-02  1733   0.129E-01    0.539E+00
RMM:  51    -0.116550075033E+04    0.22201E+00   -0.75865E-02  1769   0.254E-01    0.185E+00
RMM:  52    -0.116553268722E+04   -0.31937E-01   -0.62024E-03  1558   0.863E-02    0.275E+00
RMM:  53    -0.116552779974E+04    0.48875E-02   -0.65494E-04  1177   0.286E-02    0.266E+00
RMM:  54    -0.116552610402E+04    0.16957E-02   -0.12844E-04  1083   0.144E-02    0.263E+00
RMM:  55    -0.116553067804E+04   -0.45740E-02   -0.12072E-04  1076   0.135E-02    0.273E+00
RMM:  56    -0.116553294336E+04   -0.22653E-02   -0.22882E-04  1086   0.162E-02    0.274E+00
RMM:  57    -0.116554171069E+04   -0.87673E-02   -0.45308E-04  1180   0.199E-02    0.296E+00
RMM:  58    -0.116552720685E+04    0.14504E-01   -0.57583E-04  1261   0.244E-02    0.270E+00
RMM:  59    -0.116552761804E+04   -0.41119E-03   -0.38256E-05  1039   0.107E-02    0.269E+00
RMM:  60    -0.116553060493E+04   -0.29869E-02   -0.67744E-05  1039   0.980E-03    0.285E+00
RMM:  61    -0.116556043049E+04   -0.29826E-01   -0.73095E-02  1785   0.249E-01    0.292E+00
RMM:  62    -0.116553623895E+04    0.24192E-01   -0.51697E-03  1646   0.860E-02    0.245E+00
RMM:  63    -0.116553595028E+04    0.28867E-03   -0.40788E-04  1185   0.246E-02    0.244E+00
RMM:  64    -0.116553571712E+04    0.23315E-03   -0.50775E-05  1068   0.128E-02    0.244E+00
RMM:  65    -0.116553503958E+04    0.67754E-03   -0.62127E-05  1057   0.106E-02    0.238E+00
RMM:  66    -0.116552343049E+04    0.11609E-01   -0.19409E-02  1669   0.126E-01    0.165E+00
RMM:  67    -0.116552734504E+04   -0.39146E-02   -0.28714E-03  1431   0.642E-02    0.144E+00
RMM:  68    -0.116552994517E+04   -0.26001E-02   -0.37713E-03  1480   0.698E-02    0.133E+00
RMM:  69    -0.116552967788E+04    0.26729E-03   -0.24126E-04  1093   0.240E-02    0.134E+00
RMM:  70    -0.116552972001E+04   -0.42129E-04   -0.43363E-05  1046   0.111E-02
   1 F= -.11724933E+04 E0= -.11724873E+04  d E =-.117249E+04  mag=    -0.0686
       N       E                     dE             d eps       ncg     rms          rms(c)
DAV:   1    -0.116541447185E+04    0.11521E+00   -0.19876E+01  1728   0.740E+00    0.183E+00
RMM:   2    -0.116551512154E+04   -0.10065E+00   -0.10830E+00  1755   0.141E+00    0.185E+00
RMM:   3    -0.116551461787E+04    0.50367E-03   -0.66862E-02  1805   0.361E-01    0.192E+00
RMM:   4    -0.116551639174E+04   -0.17739E-02   -0.10154E-02  1927   0.111E-01    0.203E+00
RMM:   5    -0.116551192914E+04    0.44626E-02   -0.84760E-02  1602   0.321E-01    0.778E-01
RMM:   6    -0.116551708579E+04   -0.51567E-02   -0.17754E-02  1617   0.188E-01    0.437E-01
RMM:   7    -0.116551999286E+04   -0.29071E-02   -0.37766E-03  1643   0.692E-02    0.393E-01
RMM:   8    -0.116552374810E+04   -0.37552E-02   -0.31063E-03  1635   0.627E-02    0.199E-01
RMM:   9    -0.116552666755E+04   -0.29195E-02   -0.18650E-03  1366   0.436E-02    0.156E-01
RMM:  10    -0.116552764651E+04   -0.97896E-03   -0.10325E-03  1284   0.300E-02    0.944E-02
RMM:  11    -0.116552776566E+04   -0.11915E-03   -0.23708E-04  1091   0.184E-02    0.652E-02
RMM:  12    -0.116552780517E+04   -0.39518E-04   -0.12341E-04  1075   0.144E-02
   2 F= -.11724921E+04 E0= -.11724921E+04  d E =0.116182E-02  mag=    -0.0010
       N       E                     dE             d eps       ncg     rms          rms(c)
DAV:   1    -0.116557714564E+04   -0.49380E-01   -0.37675E+00  1800   0.324E+00    0.605E-01
RMM:   2    -0.116559615825E+04   -0.19013E-01   -0.19560E-01  1681   0.614E-01    0.835E-01
RMM:   3    -0.116559579981E+04    0.35844E-03   -0.12513E-02  1742   0.161E-01    0.959E-01
RMM:   4    -0.116559542697E+04    0.37284E-03   -0.54013E-03  1609   0.846E-02    0.714E-01
RMM:   5    -0.116559435338E+04    0.10736E-02   -0.32754E-03  1625   0.680E-02    0.571E-01
RMM:   6    -0.116559404085E+04    0.31253E-03   -0.10291E-03  1447   0.423E-02    0.435E-01
RMM:   7    -0.116559421731E+04   -0.17646E-03   -0.89626E-04  1393   0.346E-02    0.330E-01
RMM:   8    -0.116559429377E+04   -0.76458E-04   -0.16263E-04  1077   0.212E-02
   3 F= -.11725583E+04 E0= -.11725583E+04  d E =-.650004E-01  mag=     0.0001
       N       E                     dE             d eps       ncg     rms          rms(c)
DAV:   1    -0.116560298823E+04   -0.87709E-02   -0.12685E+00  1836   0.187E+00    0.478E-01
RMM:   2    -0.116560935949E+04   -0.63713E-02   -0.65202E-02  1699   0.352E-01    0.609E-01
RMM:   3    -0.116560914835E+04    0.21114E-03   -0.45145E-03  1646   0.964E-02    0.747E-01
RMM:   4    -0.116560928759E+04   -0.13924E-03   -0.40679E-03  1577   0.734E-02    0.491E-01
RMM:   5    -0.116560915266E+04    0.13494E-03   -0.19363E-03  1528   0.532E-02    0.321E-01
RMM:   6    -0.116560948410E+04   -0.33144E-03   -0.51421E-04  1222   0.285E-02    0.265E-01
RMM:   7    -0.116560999913E+04   -0.51503E-03   -0.68875E-04  1208   0.287E-02    0.211E-01
RMM:   8    -0.116561021385E+04   -0.21472E-03   -0.15196E-04  1068   0.167E-02    0.201E-01
RMM:   9    -0.116561023963E+04   -0.25782E-04   -0.51541E-05  1053   0.103E-02
   4 F= -.11725741E+04 E0= -.11725740E+04  d E =-.807567E-01  mag=    -0.0001
       N       E                     dE             d eps       ncg     rms          rms(c)
DAV:   1    -0.116557344605E+04    0.36768E-01   -0.46037E+00  1800   0.376E+00    0.814E-01
RMM:   2    -0.116559656474E+04   -0.23119E-01   -0.24815E-01  1695   0.649E-01    0.626E-01
RMM:   3    -0.116559572329E+04    0.84145E-03   -0.13591E-02  1710   0.181E-01    0.575E-01
RMM:   4    -0.116559469988E+04    0.10234E-02   -0.42168E-03  1620   0.766E-02    0.475E-01
RMM:   5    -0.116559433585E+04    0.36403E-03   -0.94456E-03  1598   0.113E-01    0.358E-01
RMM:   6    -0.116559553188E+04   -0.11960E-02   -0.26375E-03  1587   0.691E-02    0.326E-01
RMM:   7    -0.116559682930E+04   -0.12974E-02   -0.29896E-03  1500   0.570E-02    0.285E-01
RMM:   8    -0.116559789349E+04   -0.10642E-02   -0.18510E-03  1372   0.457E-02    0.267E-01
RMM:   9    -0.116559783640E+04    0.57086E-04   -0.37336E-03  1465   0.588E-02    0.229E-01
RMM:  10    -0.116559536420E+04    0.24722E-02   -0.66373E-03  1488   0.753E-02    0.191E-01
RMM:  11    -0.116559954015E+04   -0.41759E-02   -0.24927E-03  1290   0.462E-02    0.157E-01
RMM:  12    -0.116559936364E+04    0.17651E-03   -0.20535E-03  1438   0.465E-02    0.124E-01
RMM:  13    -0.116560007490E+04   -0.71126E-03   -0.15004E-03  1325   0.426E-02    0.880E-02
RMM:  14    -0.116560046768E+04   -0.39279E-03   -0.44366E-04  1132   0.260E-02    0.506E-02
RMM:  15    -0.116560062734E+04   -0.15966E-03   -0.84682E-05  1055   0.127E-02    0.278E-02
RMM:  16    -0.116560058557E+04    0.41778E-04   -0.13587E-04  1053   0.148E-02
   5 F= -.11725650E+04 E0= -.11725633E+04  d E =0.906624E-02  mag=    -0.0411
       N       E                     dE             d eps       ncg     rms          rms(c)
DAV:   1    -0.116561739996E+04   -0.16773E-01   -0.13918E+00  1836   0.207E+00    0.394E-01
RMM:   2    -0.116562407452E+04   -0.66746E-02   -0.73648E-02  1699   0.357E-01    0.317E-01
RMM:   3    -0.116562362322E+04    0.45131E-03   -0.40405E-03  1649   0.992E-02    0.259E-01
RMM:   4    -0.116562281900E+04    0.80421E-03   -0.24352E-03  1589   0.598E-02    0.162E-01
RMM:   5    -0.116562255299E+04    0.26602E-03   -0.14351E-03  1576   0.470E-02    0.104E-01
RMM:   6    -0.116562261794E+04   -0.64956E-04   -0.27723E-04  1118   0.268E-02
   6 F= -.11725867E+04 E0= -.11725847E+04  d E =-.126553E-01  mag=    -0.0501
       N       E                     dE             d eps       ncg     rms          rms(c)
DAV:   1    -0.116561728899E+04    0.52640E-02   -0.10347E+00  1584   0.163E+00    0.308E-01
RMM:   2    -0.116561924679E+04   -0.19578E-02   -0.28615E-02  1586   0.269E-01    0.295E-01
RMM:   3    -0.116561915826E+04    0.88536E-04   -0.23052E-03  1660   0.790E-02    0.298E-01
RMM:   4    -0.116561918627E+04   -0.28018E-04   -0.20442E-04  1128   0.219E-02
   7 F= -.11725833E+04 E0= -.11725811E+04  d E =0.341513E-02  mag=    -0.0577
       N       E                     dE             d eps       ncg     rms          rms(c)
DAV:   1    -0.116562298152E+04   -0.38233E-02   -0.46375E-01  1656   0.110E+00    0.193E-01
RMM:   2    -0.116562432549E+04   -0.13440E-02   -0.15559E-02  1585   0.196E-01    0.946E-02
RMM:   3    -0.116562431847E+04    0.70197E-05   -0.11602E-03  1519   0.579E-02    0.774E-02
RMM:   4    -0.116562425323E+04    0.65244E-04   -0.15780E-04  1069   0.189E-02
   8 F= -.11725884E+04 E0= -.11725859E+04  d E =-.163772E-02  mag=    -0.0614
