       N       E                     dE             d eps       ncg     rms          rms(c)
DAV:   1     0.497183332712E+04    0.49718E+04   -0.16991E+05  1800   0.904E+02
DAV:   2    -0.478807736541E+02   -0.50197E+04   -0.45584E+04  2556   0.210E+02
DAV:   3    -0.118485186181E+04   -0.11370E+04   -0.11326E+04  2124   0.110E+02
DAV:   4    -0.123235525734E+04   -0.47503E+02   -0.47225E+02  2124   0.291E+01
DAV:   5    -0.123382134689E+04   -0.14661E+01   -0.14626E+01  2484   0.444E+00    0.622E+01
RMM:   6    -0.121944370160E+04    0.14378E+02   -0.76940E+00  1592   0.313E+00    0.512E+01
RMM:   7    -0.117473374762E+04    0.44710E+02   -0.86012E+01  1596   0.101E+01    0.283E+01
RMM:   8    -0.117053398004E+04    0.41998E+01   -0.75636E+00  1598   0.327E+00    0.215E+01
RMM:   9    -0.116718387640E+04    0.33501E+01   -0.33197E+01  1584   0.647E+00    0.957E+00
RMM:  10    -0.116719956718E+04   -0.15691E-01   -0.10694E+00  1656   0.131E+00    0.667E+00
RMM:  11    -0.116640143161E+04    0.79814E+00   -0.38780E+00  1584   0.214E+00    0.175E+00
RMM:  12    -0.116634535816E+04    0.56073E-01   -0.27507E-01  1584   0.558E-01    0.114E+00
RMM:  13    -0.116631977788E+04    0.25580E-01   -0.94233E-02  1589   0.336E-01    0.388E-01
RMM:  14    -0.116631739963E+04    0.23783E-02   -0.13940E-02  1622   0.136E-01    0.245E-01
RMM:  15    -0.116631685189E+04    0.54774E-03   -0.25968E-03  1612   0.569E-02    0.180E-01
RMM:  16    -0.116631745369E+04   -0.60180E-03   -0.14671E-03  1588   0.434E-02    0.109E-01
RMM:  17    -0.116631734097E+04    0.11272E-03   -0.37576E-04  1262   0.225E-02    0.615E-02
RMM:  18    -0.116631741498E+04   -0.74005E-04   -0.16833E-04  1086   0.163E-02
   1 F= -.11733861E+04 E0= -.11733861E+04  d E =-.117339E+04  mag=     0.0002
       N       E                     dE             d eps       ncg     rms          rms(c)
DAV:   1    -0.116630841605E+04    0.89249E-02   -0.39226E+00  1584   0.264E+00    0.117E+00
RMM:   2    -0.116631734804E+04   -0.89320E-02   -0.10832E-01  1655   0.382E-01    0.109E+00
RMM:   3    -0.116631555565E+04    0.17924E-02   -0.61721E-03  1730   0.811E-02    0.916E-01
RMM:   4    -0.116631586492E+04   -0.30927E-03   -0.18166E-02  1586   0.144E-01    0.203E-01
RMM:   5    -0.116631435880E+04    0.15061E-02   -0.10930E-03  1422   0.336E-02    0.115E-01
RMM:   6    -0.116631415368E+04    0.20511E-03   -0.42842E-04  1274   0.198E-02    0.732E-02
RMM:   7    -0.116631403202E+04    0.12167E-03   -0.38217E-04  1332   0.210E-02    0.401E-02
RMM:   8    -0.116631402981E+04    0.22072E-05   -0.17829E-04  1069   0.156E-02
   2 F= -.11733826E+04 E0= -.11733826E+04  d E =0.348033E-02  mag=    -0.0000
       N       E                     dE             d eps       ncg     rms          rms(c)
DAV:   1    -0.116632141509E+04   -0.73831E-02   -0.12472E+00  1656   0.149E+00    0.642E-01
RMM:   2    -0.116632439115E+04   -0.29761E-02   -0.37370E-02  1646   0.214E-01    0.612E-01
RMM:   3    -0.116632382524E+04    0.56591E-03   -0.18467E-03  1561   0.438E-02    0.532E-01
RMM:   4    -0.116632368489E+04    0.14035E-03   -0.61695E-03  1588   0.835E-02    0.123E-01
RMM:   5    -0.116632332921E+04    0.35568E-03   -0.28286E-04  1132   0.183E-02    0.678E-02
RMM:   6    -0.116632323813E+04    0.91083E-04   -0.18058E-04  1119   0.135E-02
   3 F= -.11733919E+04 E0= -.11733919E+04  d E =-.577458E-02  mag=    -0.0000
       N       E                     dE             d eps       ncg     rms          rms(c)
DAV:   1    -0.116632346293E+04   -0.13372E-03   -0.58738E-01  1656   0.118E+00    0.301E-01
RMM:   2    -0.116632424323E+04   -0.78030E-03   -0.15221E-02  1586   0.175E-01    0.266E-01
RMM:   3    -0.116632329001E+04    0.95322E-03   -0.98445E-04  1597   0.389E-02    0.208E-01
RMM:   4    -0.116632258388E+04    0.70613E-03   -0.47946E-03  1586   0.745E-02    0.870E-02
RMM:   5    -0.116632248832E+04    0.95563E-04   -0.14816E-04  1092   0.159E-02
   4 F= -.11733911E+04 E0= -.11733911E+04  d E =0.749080E-03  mag=    -0.0000
       N       E                     dE             d eps       ncg     rms          rms(c)
DAV:   1    -0.116632480622E+04   -0.22223E-02   -0.19432E-01  1728   0.678E-01    0.161E-01
RMM:   2    -0.116632491883E+04   -0.11261E-03   -0.46641E-03  1588   0.967E-02    0.145E-01
RMM:   3    -0.116632447984E+04    0.43899E-03   -0.38259E-04  1227   0.243E-02    0.110E-01
RMM:   4    -0.116632414212E+04    0.33773E-03   -0.18302E-03  1586   0.464E-02    0.492E-02
RMM:   5    -0.116632411482E+04    0.27297E-04   -0.47611E-05  1023   0.959E-03
   5 F= -.11733928E+04 E0= -.11733928E+04  d E =-.880036E-03  mag=    -0.0000
