       N       E                     dE             d eps       ncg     rms          rms(c)
DAV:   1     0.489636279218E+04    0.48964E+04   -0.17085E+05  1836   0.903E+02
DAV:   2    -0.567524135568E+02   -0.49531E+04   -0.44990E+04  2520   0.209E+02
DAV:   3    -0.118584911182E+04   -0.11291E+04   -0.11245E+04  2124   0.110E+02
DAV:   4    -0.123291204764E+04   -0.47063E+02   -0.46768E+02  2052   0.309E+01
DAV:   5    -0.123429557938E+04   -0.13835E+01   -0.13809E+01  2376   0.484E+00    0.698E+01
RMM:   6    -0.121835236361E+04    0.15943E+02   -0.14500E+01  1623   0.418E+00    0.523E+01
RMM:   7    -0.119713760469E+04    0.21215E+02   -0.20955E+01  1598   0.546E+00    0.364E+01
RMM:   8    -0.117489640798E+04    0.22241E+02   -0.29944E+01  1584   0.657E+00    0.242E+01
RMM:   9    -0.116868904435E+04    0.62074E+01   -0.31833E+01  1584   0.684E+00    0.136E+01
RMM:  10    -0.117029854269E+04   -0.16095E+01   -0.43213E+00  1614   0.354E+00    0.104E+01
RMM:  11    -0.117012233582E+04    0.17621E+00   -0.58061E-01  1826   0.106E+00    0.901E+00
RMM:  12    -0.116948860695E+04    0.63373E+00   -0.78175E-01  1584   0.106E+00    0.618E+00
RMM:  13    -0.116931231250E+04    0.17629E+00   -0.76727E-01  1588   0.107E+00    0.311E+00
RMM:  14    -0.116933191781E+04   -0.19605E-01   -0.70836E-02  1624   0.475E-01    0.155E+00
RMM:  15    -0.116933298770E+04   -0.10699E-02   -0.12491E-02  1718   0.139E-01    0.141E+00
RMM:  16    -0.116933127820E+04    0.17095E-02   -0.19591E-03  1603   0.684E-02    0.133E+00
RMM:  17    -0.116932910314E+04    0.21751E-02   -0.82293E-03  1617   0.104E-01    0.741E-01
RMM:  18    -0.116932662239E+04    0.24807E-02   -0.87852E-03  1588   0.120E-01    0.354E-01
RMM:  19    -0.116932722092E+04   -0.59853E-03   -0.12386E-03  1560   0.606E-02    0.331E-01
RMM:  20    -0.116932766368E+04   -0.44276E-03   -0.35158E-04  1151   0.295E-02    0.199E-01
RMM:  21    -0.116932803852E+04   -0.37485E-03   -0.25685E-04  1129   0.230E-02    0.312E-01
RMM:  22    -0.116932815821E+04   -0.11969E-03   -0.26387E-04  1144   0.263E-02    0.259E-01
RMM:  23    -0.116932828959E+04   -0.13137E-03   -0.46011E-04  1279   0.310E-02    0.208E-01
RMM:  24    -0.116932831846E+04   -0.28876E-04   -0.58434E-04  1342   0.341E-02
   1 F= -.11763408E+04 E0= -.11763315E+04  d E =-.117634E+04  mag=     0.3649
       N       E                     dE             d eps       ncg     rms          rms(c)
DAV:   1    -0.116932825716E+04    0.32428E-04   -0.25845E-01  1764   0.862E-01    0.170E-01
RMM:   2    -0.116932886961E+04   -0.61245E-03   -0.86300E-03  1593   0.132E-01    0.142E-01
RMM:   3    -0.116932867813E+04    0.19148E-03   -0.54211E-04  1359   0.472E-02    0.150E-01
RMM:   4    -0.116932844407E+04    0.23407E-03   -0.21486E-04  1090   0.217E-02    0.108E-01
RMM:   5    -0.116932815123E+04    0.29284E-03   -0.12632E-03  1584   0.410E-02    0.722E-02
RMM:   6    -0.116932815021E+04    0.10173E-05   -0.54767E-05  1013   0.192E-02
   2 F= -.11763408E+04 E0= -.11763315E+04  d E =0.870672E-04  mag=     0.3634
       N       E                     dE             d eps       ncg     rms          rms(c)
DAV:   1    -0.116932921242E+04   -0.10612E-02   -0.83715E-02  1728   0.488E-01    0.154E-01
RMM:   2    -0.116932931767E+04   -0.10525E-03   -0.21268E-03  1584   0.708E-02    0.928E-02
RMM:   3    -0.116932926885E+04    0.48823E-04   -0.10720E-04  1059   0.210E-02
   3 F= -.11763418E+04 E0= -.11763329E+04  d E =-.984397E-03  mag=     0.3522
