       N       E                     dE             d eps       ncg     rms          rms(c)
DAV:   1     0.494505070261E+04    0.49451E+04   -0.17167E+05  1836   0.914E+02
DAV:   2    -0.349284624041E+02   -0.49800E+04   -0.45487E+04  2520   0.209E+02
DAV:   3    -0.118107848139E+04   -0.11462E+04   -0.11402E+04  2160   0.111E+02
DAV:   4    -0.122731702468E+04   -0.46239E+02   -0.45958E+02  2088   0.288E+01
DAV:   5    -0.122846832240E+04   -0.11513E+01   -0.11485E+01  2376   0.416E+00    0.655E+01
RMM:   6    -0.121108039948E+04    0.17388E+02   -0.27039E+01  1584   0.536E+00    0.595E+01
RMM:   7    -0.120050930455E+04    0.10571E+02   -0.44735E+00  1584   0.234E+00    0.480E+01
RMM:   8    -0.118569375621E+04    0.14816E+02   -0.10617E+01  1584   0.378E+00    0.375E+01
RMM:   9    -0.116873585836E+04    0.16958E+02   -0.17266E+01  1584   0.479E+00    0.259E+01
RMM:  10    -0.116104848990E+04    0.76874E+01   -0.14866E+01  1584   0.444E+00    0.177E+01
RMM:  11    -0.116137452701E+04   -0.32604E+00   -0.11603E+01  1584   0.389E+00    0.118E+01
RMM:  12    -0.116151641167E+04   -0.14188E+00   -0.10249E+00  1614   0.118E+00    0.660E+00
RMM:  13    -0.116124626328E+04    0.27015E+00   -0.14098E-01  1589   0.423E-01    0.557E+00
RMM:  14    -0.116091390817E+04    0.33236E+00   -0.12009E+00  1584   0.121E+00    0.319E+00
RMM:  15    -0.116089228009E+04    0.21628E-01   -0.67974E-02  1613   0.274E-01    0.216E+00
RMM:  16    -0.116088975921E+04    0.25209E-02   -0.18454E-02  1598   0.104E-01    0.171E+00
RMM:  17    -0.116089908397E+04   -0.93248E-02   -0.16351E-02  1584   0.127E-01    0.143E+00
RMM:  18    -0.116090219629E+04   -0.31123E-02   -0.19689E-02  1584   0.128E-01    0.127E+00
RMM:  19    -0.116090077137E+04    0.14249E-02   -0.29769E-03  1436   0.464E-02    0.123E+00
RMM:  20    -0.116089957711E+04    0.11943E-02   -0.29633E-03  1236   0.384E-02    0.124E+00
RMM:  21    -0.116087727978E+04    0.22297E-01   -0.34452E-02  1584   0.178E-01    0.117E+00
RMM:  22    -0.116085376350E+04    0.23516E-01   -0.65597E-02  1582   0.164E-01    0.128E+00
RMM:  23    -0.116087874643E+04   -0.24983E-01   -0.14493E-01  1584   0.282E-01    0.987E-01
RMM:  24    -0.116083740810E+04    0.41338E-01   -0.20106E-01  1569   0.260E-01    0.947E-01
RMM:  25    -0.116089749435E+04   -0.60086E-01   -0.43277E-02  1584   0.180E-01    0.873E-01
RMM:  26    -0.116088813775E+04    0.93566E-02   -0.70965E-02  1584   0.195E-01    0.382E-01
RMM:  27    -0.116090117984E+04   -0.13042E-01   -0.57218E-03  1555   0.668E-02    0.153E-01
RMM:  28    -0.116089360299E+04    0.75768E-02   -0.11991E-02  1312   0.746E-02    0.384E-01
RMM:  29    -0.116089216406E+04    0.14389E-02   -0.25646E-02  1337   0.119E-01    0.523E-01
RMM:  30    -0.116089865327E+04   -0.64892E-02   -0.14071E-02  1303   0.926E-02    0.103E-01
RMM:  31    -0.116090117460E+04   -0.25213E-02   -0.47531E-04  1119   0.216E-02    0.105E-01
RMM:  32    -0.116090141526E+04   -0.24066E-03   -0.19391E-04  1030   0.152E-02    0.530E-02
RMM:  33    -0.116090145684E+04   -0.41577E-04   -0.15966E-04   861   0.107E-02
   1 F= -.11680202E+04 E0= -.11680202E+04  d E =-.116802E+04  mag=     2.0006
       N       E                     dE             d eps       ncg     rms          rms(c)
DAV:   1    -0.116087538721E+04    0.26028E-01   -0.32629E+01  1656   0.660E+00    0.187E+00
RMM:   2    -0.116093093953E+04   -0.55552E-01   -0.57794E-01  1584   0.948E-01    0.145E+00
RMM:   3    -0.116093299249E+04   -0.20530E-02   -0.35543E-02  1653   0.199E-01    0.108E+00
RMM:   4    -0.116092881611E+04    0.41764E-02   -0.19093E-02  1588   0.156E-01    0.670E-01
RMM:   5    -0.116092775847E+04    0.10576E-02   -0.51874E-03  1588   0.810E-02    0.478E-01
RMM:   6    -0.116092900062E+04   -0.12422E-02   -0.36098E-03  1584   0.682E-02    0.300E-01
RMM:   7    -0.116092895401E+04    0.46609E-04   -0.48514E-04  1109   0.222E-02
   2 F= -.11680457E+04 E0= -.11680457E+04  d E =-.255258E-01  mag=     2.0000
       N       E                     dE             d eps       ncg     rms          rms(c)
DAV:   1    -0.116093600604E+04   -0.70054E-02   -0.45136E+00  1728   0.245E+00    0.675E-01
RMM:   2    -0.116094364782E+04   -0.76418E-02   -0.71196E-02  1584   0.346E-01    0.564E-01
RMM:   3    -0.116094335639E+04    0.29143E-03   -0.52857E-03  1624   0.779E-02    0.444E-01
RMM:   4    -0.116094250556E+04    0.85084E-03   -0.36640E-03  1570   0.644E-02    0.369E-01
RMM:   5    -0.116094233345E+04    0.17211E-03   -0.13893E-03  1456   0.377E-02    0.351E-01
RMM:   6    -0.116094233855E+04   -0.50959E-05   -0.57882E-04  1073   0.214E-02
   3 F= -.11680598E+04 E0= -.11680598E+04  d E =-.396007E-01  mag=     2.0000
       N       E                     dE             d eps       ncg     rms          rms(c)
DAV:   1    -0.116094884290E+04   -0.65095E-02   -0.16444E+01  1728   0.416E+00    0.120E+00
RMM:   2    -0.116097275794E+04   -0.23915E-01   -0.21703E-01  1584   0.539E-01    0.974E-01
RMM:   3    -0.116097544837E+04   -0.26904E-02   -0.10423E-02  1614   0.103E-01    0.745E-01
RMM:   4    -0.116097535026E+04    0.98107E-04   -0.63135E-03  1579   0.805E-02    0.576E-01
RMM:   5    -0.116097548342E+04   -0.13315E-03   -0.41758E-03  1568   0.600E-02    0.478E-01
RMM:   6    -0.116097575058E+04   -0.26716E-03   -0.18666E-03  1254   0.360E-02    0.451E-01
RMM:   7    -0.116097584525E+04   -0.94671E-04   -0.14720E-03  1090   0.254E-02    0.442E-01
RMM:   8    -0.116097596633E+04   -0.12108E-03   -0.23641E-03  1128   0.306E-02    0.431E-01
RMM:   9    -0.116097571321E+04    0.25311E-03   -0.83650E-03  1296   0.574E-02    0.404E-01
RMM:  10    -0.116097097459E+04    0.47386E-02   -0.21173E-02  1406   0.862E-02    0.315E-01
RMM:  11    -0.116097449256E+04   -0.35180E-02   -0.38122E-03  1460   0.541E-02    0.183E-01
RMM:  12    -0.116096717742E+04    0.73151E-02   -0.22178E-02  1321   0.887E-02    0.257E-01
RMM:  13    -0.116097318262E+04   -0.60052E-02   -0.57800E-03  1311   0.657E-02    0.692E-02
RMM:  14    -0.116097427481E+04   -0.10922E-02   -0.78753E-04  1082   0.227E-02    0.393E-02
RMM:  15    -0.116097454075E+04   -0.26594E-03   -0.15183E-04   992   0.120E-02    0.332E-02
RMM:  16    -0.116097460039E+04   -0.59643E-04   -0.23413E-04   950   0.108E-02
   4 F= -.11680899E+04 E0= -.11680899E+04  d E =-.301050E-01  mag=     2.0000
       N       E                     dE             d eps       ncg     rms          rms(c)
DAV:   1    -0.116097480040E+04   -0.25965E-03   -0.10232E-01  1656   0.324E-01    0.924E-02
RMM:   2    -0.116097495844E+04   -0.15804E-03   -0.13380E-03  1238   0.426E-02    0.781E-02
RMM:   3    -0.116097499624E+04   -0.37796E-04   -0.73587E-05   970   0.107E-02
   5 F= -.11680901E+04 E0= -.11680901E+04  d E =-.303395E-01  mag=     2.0000
       N       E                     dE             d eps       ncg     rms          rms(c)
DAV:   1    -0.116097380170E+04    0.11567E-02   -0.58740E+00  1764   0.273E+00    0.707E-01
RMM:   2    -0.116098182415E+04   -0.80225E-02   -0.77616E-02  1590   0.372E-01    0.618E-01
RMM:   3    -0.116098238673E+04   -0.56258E-03   -0.35499E-03  1577   0.689E-02    0.486E-01
RMM:   4    -0.116098203088E+04    0.35585E-03   -0.37482E-03  1574   0.673E-02    0.303E-01
RMM:   5    -0.116098215008E+04   -0.11920E-03   -0.18730E-03  1515   0.469E-02    0.165E-01
RMM:   6    -0.116098217219E+04   -0.22104E-04   -0.12351E-04  1039   0.135E-02
   6 F= -.11680959E+04 E0= -.11680959E+04  d E =-.579139E-02  mag=     2.0000
       N       E                     dE             d eps       ncg     rms          rms(c)
DAV:   1    -0.116098276991E+04   -0.61983E-03   -0.64294E-01  1728   0.902E-01    0.246E-01
RMM:   2    -0.116098362160E+04   -0.85168E-03   -0.83043E-03  1589   0.122E-01    0.227E-01
RMM:   3    -0.116098362129E+04    0.30230E-06   -0.39908E-04  1118   0.240E-02
   7 F= -.11680978E+04 E0= -.11680978E+04  d E =-.768932E-02  mag=     2.0000
       N       E                     dE             d eps       ncg     rms          rms(c)
DAV:   1    -0.116098533772E+04   -0.17161E-02   -0.74324E-01  1728   0.105E+00    0.286E-01
RMM:   2    -0.116098636186E+04   -0.10241E-02   -0.10839E-02  1584   0.139E-01    0.254E-01
RMM:   3    -0.116098636007E+04    0.17935E-05   -0.54516E-04  1204   0.290E-02
   8 F= -.11681001E+04 E0= -.11681001E+04  d E =-.230973E-02  mag=     2.0000
       N       E                     dE             d eps       ncg     rms          rms(c)
DAV:   1    -0.116098641715E+04   -0.55284E-04   -0.53513E-02  1728   0.276E-01    0.232E-01
RMM:   2    -0.116098635991E+04    0.57236E-04   -0.78365E-04  1216   0.349E-02
   9 F= -.11681000E+04 E0= -.11681000E+04  d E =-.219696E-02  mag=     2.0000
       N       E                     dE             d eps       ncg     rms          rms(c)
DAV:   1    -0.116098917423E+04   -0.27571E-02   -0.55808E-01  1656   0.100E+00    0.351E-01
RMM:   2    -0.116098916460E+04    0.96292E-05   -0.87663E-03  1584   0.126E-01    0.316E-01
RMM:   3    -0.116098860124E+04    0.56336E-03   -0.61080E-04  1334   0.310E-02    0.283E-01
RMM:   4    -0.116098784169E+04    0.75956E-03   -0.17997E-03  1584   0.462E-02    0.209E-01
RMM:   5    -0.116098766550E+04    0.17619E-03   -0.14020E-03  1584   0.394E-02    0.182E-01
RMM:   6    -0.116098767852E+04   -0.13027E-04   -0.67301E-04  1082   0.214E-02
  10 F= -.11681008E+04 E0= -.11681008E+04  d E =-.804279E-03  mag=     2.0000
       N       E                     dE             d eps       ncg     rms          rms(c)
DAV:   1    -0.116098766468E+04    0.81521E-06   -0.37709E-02  1728   0.252E-01    0.150E-01
RMM:   2    -0.116098763660E+04    0.28079E-04   -0.66041E-04  1209   0.338E-02
  11 F= -.11681009E+04 E0= -.11681009E+04  d E =-.887752E-03  mag=     2.0000
