       N       E                     dE             d eps       ncg     rms          rms(c)
DAV:   1     0.495329791051E+04    0.49533E+04   -0.17501E+05  1872   0.922E+02
DAV:   2    -0.579522342974E+02   -0.50113E+04   -0.45883E+04  2592   0.210E+02
DAV:   3    -0.119974952550E+04   -0.11418E+04   -0.11369E+04  2088   0.110E+02
DAV:   4    -0.124668199653E+04   -0.46932E+02   -0.46694E+02  1980   0.302E+01
DAV:   5    -0.124806837035E+04   -0.13864E+01   -0.13837E+01  2412   0.488E+00    0.638E+01
RMM:   6    -0.123371579736E+04    0.14353E+02   -0.83681E+00  1630   0.336E+00    0.518E+01
RMM:   7    -0.119251392373E+04    0.41202E+02   -0.82730E+01  1633   0.103E+01    0.293E+01
RMM:   8    -0.118571533467E+04    0.67986E+01   -0.98157E+00  1655   0.411E+00    0.228E+01
RMM:   9    -0.118204632430E+04    0.36690E+01   -0.40648E+01  1591   0.737E+00    0.113E+01
RMM:  10    -0.118137352257E+04    0.67280E+00   -0.18477E+00  1680   0.244E+00    0.738E+00
RMM:  11    -0.118114601902E+04    0.22750E+00   -0.24490E+00  1700   0.160E+00    0.639E+00
RMM:  12    -0.118054923988E+04    0.59678E+00   -0.67898E-01  1639   0.977E-01    0.273E+00
RMM:  13    -0.118048719377E+04    0.62046E-01   -0.33695E-01  1713   0.652E-01    0.905E-01
RMM:  14    -0.118048266538E+04    0.45284E-02   -0.28788E-02  1776   0.252E-01    0.532E-01
RMM:  15    -0.118048042476E+04    0.22406E-02   -0.57069E-03  1794   0.923E-02    0.365E-01
RMM:  16    -0.118048046834E+04   -0.43572E-04   -0.26032E-03  1611   0.651E-02    0.214E-01
RMM:  17    -0.118048080225E+04   -0.33391E-03   -0.17899E-03  1605   0.546E-02    0.112E-01
RMM:  18    -0.118048112238E+04   -0.32013E-03   -0.38580E-04  1229   0.291E-02    0.910E-02
RMM:  19    -0.118048137064E+04   -0.24826E-03   -0.35973E-04  1239   0.271E-02    0.914E-02
RMM:  20    -0.118048153095E+04   -0.16031E-03   -0.12324E-04  1066   0.187E-02    0.932E-02
RMM:  21    -0.118048150963E+04    0.21316E-04   -0.48861E-05  1023   0.134E-02
   1 F= -.11876197E+04 E0= -.11876076E+04  d E =-.118762E+04  mag=     0.3952
       N       E                     dE             d eps       ncg     rms          rms(c)
DAV:   1    -0.118047669360E+04    0.48374E-02   -0.13574E+00  1692   0.171E+00    0.373E-01
RMM:   2    -0.118048292138E+04   -0.62278E-02   -0.72871E-02  1725   0.272E-01    0.387E-01
RMM:   3    -0.118048240928E+04    0.51210E-03   -0.36701E-03  1559   0.758E-02    0.433E-01
RMM:   4    -0.118048233647E+04    0.72812E-04   -0.62452E-04  1167   0.242E-02
   2 F= -.11876214E+04 E0= -.11876095E+04  d E =-.168287E-02  mag=     0.4114
       N       E                     dE             d eps       ncg     rms          rms(c)
DAV:   1    -0.118048211660E+04    0.29268E-03   -0.19167E-01  1764   0.638E-01    0.528E-01
RMM:   2    -0.118048350312E+04   -0.13865E-02   -0.97895E-03  1677   0.100E-01    0.415E-01
RMM:   3    -0.118048390045E+04   -0.39733E-03   -0.19733E-03  1623   0.552E-02    0.209E-01
RMM:   4    -0.118048429686E+04   -0.39641E-03   -0.11442E-03  1543   0.425E-02    0.111E-01
RMM:   5    -0.118048464814E+04   -0.35128E-03   -0.97565E-04  1490   0.395E-02    0.558E-02
RMM:   6    -0.118048487488E+04   -0.22674E-03   -0.28734E-04  1158   0.235E-02    0.426E-02
RMM:   7    -0.118048490726E+04   -0.32384E-04   -0.66579E-05  1026   0.151E-02
   3 F= -.11876236E+04 E0= -.11876159E+04  d E =-.392769E-02  mag=     0.7465
       N       E                     dE             d eps       ncg     rms          rms(c)
DAV:   1    -0.118048482041E+04    0.54467E-04   -0.58457E-01  1800   0.110E+00    0.225E-01
RMM:   2    -0.118048604032E+04   -0.12199E-02   -0.18042E-02  1661   0.165E-01    0.253E-01
RMM:   3    -0.118048580482E+04    0.23550E-03   -0.88419E-04  1258   0.442E-02    0.273E-01
RMM:   4    -0.118048578817E+04    0.16651E-04   -0.15438E-04  1088   0.173E-02
   4 F= -.11876251E+04 E0= -.11876178E+04  d E =-.150308E-02  mag=     0.7668
       N       E                     dE             d eps       ncg     rms          rms(c)
DAV:   1    -0.118048607230E+04   -0.26748E-03   -0.15709E-02  1872   0.177E-01    0.511E-01
RMM:   2    -0.118048583710E+04    0.23520E-03   -0.57227E-04  1151   0.304E-02    0.454E-01
RMM:   3    -0.118048596401E+04   -0.12691E-03   -0.44230E-03  1588   0.757E-02    0.112E-01
RMM:   4    -0.118048587289E+04    0.91122E-04   -0.19122E-04  1122   0.257E-02
   5 F= -.11876253E+04 E0= -.11876189E+04  d E =-.168279E-02  mag=     0.8299
       N       E                     dE             d eps       ncg     rms          rms(c)
DAV:   1    -0.118048549272E+04    0.47129E-03   -0.24108E-01  1836   0.861E-01    0.170E-01
RMM:   2    -0.118048736153E+04   -0.18688E-02   -0.21519E-02  1695   0.139E-01    0.153E-01
RMM:   3    -0.118048723685E+04    0.12468E-03   -0.10539E-03  1135   0.392E-02    0.139E-01
RMM:   4    -0.118048713707E+04    0.99780E-04   -0.38004E-04  1117   0.232E-02
   6 F= -.11876263E+04 E0= -.11876201E+04  d E =-.999086E-03  mag=     0.8279
       N       E                     dE             d eps       ncg     rms          rms(c)
DAV:   1    -0.118048720543E+04    0.31419E-04   -0.13153E-02  1872   0.196E-01    0.397E-02
RMM:   2    -0.118048729148E+04   -0.86047E-04   -0.10053E-03  1237   0.346E-02    0.326E-02
RMM:   3    -0.118048727156E+04    0.19919E-04   -0.60408E-05  1008   0.119E-02
   7 F= -.11876265E+04 E0= -.11876203E+04  d E =-.119249E-02  mag=     0.8300
       N       E                     dE             d eps       ncg     rms          rms(c)
DAV:   1    -0.118048697611E+04    0.31537E-03   -0.19471E-01  1836   0.756E-01    0.141E-01
RMM:   2    -0.118048833344E+04   -0.13573E-02   -0.15540E-02  1686   0.117E-01    0.127E-01
RMM:   3    -0.118048827639E+04    0.57055E-04   -0.75605E-04  1113   0.328E-02
   8 F= -.11876273E+04 E0= -.11876212E+04  d E =-.789626E-03  mag=     0.8287
       N       E                     dE             d eps       ncg     rms          rms(c)
DAV:   1    -0.118048830307E+04    0.30367E-04   -0.96078E-04  1836   0.502E-02    0.144E-01
RMM:   2    -0.118048827922E+04    0.23858E-04   -0.11519E-04   947   0.112E-02
   9 F= -.11876273E+04 E0= -.11876212E+04  d E =-.778781E-03  mag=     0.8265
