       N       E                     dE             d eps       ncg     rms          rms(c)
DAV:   1     0.464223175252E+04    0.46422E+04   -0.18135E+05  1920   0.952E+02
DAV:   2    -0.750116272527E+02   -0.47172E+04   -0.43147E+04  2432   0.215E+02
DAV:   3    -0.119598266113E+04   -0.11210E+04   -0.11138E+04  2048   0.112E+02
DAV:   4    -0.124301311975E+04   -0.47030E+02   -0.46705E+02  1984   0.301E+01
DAV:   5    -0.124422733649E+04   -0.12142E+01   -0.12109E+01  2368   0.454E+00    0.868E+01
RMM:   6    -0.123218271458E+04    0.12045E+02   -0.11513E+02  1631   0.157E+01    0.100E+02
RMM:   7    -0.121588512315E+04    0.16298E+02   -0.15688E+01  1541   0.666E+00    0.669E+01
RMM:   8    -0.120076036093E+04    0.15125E+02   -0.12723E+01  1561   0.521E+00    0.448E+01
RMM:   9    -0.118882699873E+04    0.11933E+02   -0.84643E+00  1557   0.383E+00    0.350E+01
RMM:  10    -0.117699309458E+04    0.11834E+02   -0.10346E+01  1592   0.439E+00    0.283E+01
RMM:  11    -0.116925378241E+04    0.77393E+01   -0.11738E+01  1643   0.485E+00    0.207E+01
RMM:  12    -0.116678282548E+04    0.24710E+01   -0.10623E+01  1581   0.444E+00    0.127E+01
RMM:  13    -0.116707632129E+04   -0.29350E+00   -0.48767E+00  1545   0.316E+00    0.837E+00
RMM:  14    -0.116711188932E+04   -0.35568E-01   -0.88087E-01  1603   0.151E+00    0.700E+00
RMM:  15    -0.116692307128E+04    0.18882E+00   -0.64809E-01  1562   0.121E+00    0.454E+00
RMM:  16    -0.116668964457E+04    0.23343E+00   -0.37487E-01  1554   0.812E-01    0.260E+00
RMM:  17    -0.116672329851E+04   -0.33654E-01   -0.45878E-02  1552   0.377E-01    0.195E+00
RMM:  18    -0.116676713214E+04   -0.43834E-01   -0.61279E-02  1583   0.323E-01    0.647E-01
RMM:  19    -0.116676741970E+04   -0.28757E-03   -0.25696E-02  1543   0.229E-01    0.442E-01
RMM:  20    -0.116676775731E+04   -0.33760E-03   -0.74674E-03  1576   0.155E-01    0.215E-01
RMM:  21    -0.116676777746E+04   -0.20149E-04   -0.17891E-03  1685   0.630E-02    0.160E-01
RMM:  22    -0.116676768483E+04    0.92631E-04   -0.73365E-04  1545   0.399E-02    0.988E-02
RMM:  23    -0.116676785092E+04   -0.16609E-03   -0.22101E-04  1548   0.235E-02    0.681E-02
RMM:  24    -0.116676789730E+04   -0.46385E-04   -0.71770E-05  1568   0.157E-02    0.438E-02
RMM:  25    -0.116676791780E+04   -0.20494E-04   -0.44362E-05  1541   0.936E-03    0.256E-02
RMM:  26    -0.116676792171E+04   -0.39109E-05   -0.81000E-06  1406   0.446E-03    0.161E-02
RMM:  27    -0.116676791986E+04    0.18453E-05   -0.68804E-06  1315   0.390E-03    0.117E-02
RMM:  28    -0.116676791764E+04    0.22192E-05   -0.32953E-06  1125   0.271E-03    0.595E-03
RMM:  29    -0.116676792029E+04   -0.26455E-05   -0.92638E-07  1033   0.163E-03    0.462E-03
RMM:  30    -0.116676791958E+04    0.71154E-06   -0.33354E-07  1009   0.107E-03
   1 F= -.11738269E+04 E0= -.11738269E+04  d E =-.117383E+04  mag=     2.0000
       N       E                     dE             d eps       ncg     rms          rms(c)
DAV:   1    -0.116676518533E+04    0.27350E-02   -0.41487E-01  1728   0.115E+00    0.154E-01
RMM:   2    -0.116676619096E+04   -0.10056E-02   -0.11823E-02  1593   0.178E-01    0.150E-01
RMM:   3    -0.116676634303E+04   -0.15207E-03   -0.24749E-03  1788   0.749E-02    0.139E-01
RMM:   4    -0.116676619300E+04    0.15004E-03   -0.42851E-04  1709   0.314E-02    0.116E-01
RMM:   5    -0.116676601367E+04    0.17932E-03   -0.11497E-03  1563   0.413E-02    0.591E-02
RMM:   6    -0.116676603843E+04   -0.24757E-04   -0.24045E-04  1756   0.232E-02    0.492E-02
RMM:   7    -0.116676600553E+04    0.32903E-04   -0.50559E-05  1547   0.104E-02    0.312E-02
RMM:   8    -0.116676601147E+04   -0.59437E-05   -0.75164E-05  1558   0.104E-02    0.131E-02
RMM:   9    -0.116676600974E+04    0.17293E-05   -0.71714E-06  1494   0.533E-03    0.119E-02
RMM:  10    -0.116676600921E+04    0.52735E-06   -0.89256E-06  1504   0.391E-03
   2 F= -.11738255E+04 E0= -.11738255E+04  d E =0.146744E-02  mag=     2.0000
       N       E                     dE             d eps       ncg     rms          rms(c)
DAV:   1    -0.116676818180E+04   -0.21721E-02   -0.17683E-01  1664   0.748E-01    0.103E-01
RMM:   2    -0.116676847460E+04   -0.29280E-03   -0.38081E-03  1571   0.111E-01    0.972E-02
RMM:   3    -0.116676849583E+04   -0.21231E-04   -0.70631E-04  1674   0.447E-02    0.874E-02
RMM:   4    -0.116676841116E+04    0.84669E-04   -0.20361E-04  1638   0.223E-02    0.645E-02
RMM:   5    -0.116676836088E+04    0.50284E-04   -0.31858E-04  1571   0.231E-02    0.366E-02
RMM:   6    -0.116676837104E+04   -0.10158E-04   -0.79998E-05  1843   0.136E-02    0.298E-02
RMM:   7    -0.116676836155E+04    0.94896E-05   -0.22981E-05  1531   0.625E-03    0.181E-02
RMM:   8    -0.116676836410E+04   -0.25514E-05   -0.19066E-05  1539   0.580E-03    0.740E-03
RMM:   9    -0.116676836348E+04    0.61574E-06   -0.27434E-06  1128   0.301E-03
   3 F= -.11738275E+04 E0= -.11738275E+04  d E =-.596695E-03  mag=     2.0000
