       N       E                     dE             d eps       ncg     rms          rms(c)
DAV:   1     0.489053596152E+04    0.48905E+04   -0.16945E+05  1728   0.986E+02
DAV:   2     0.780818999161E+01   -0.48827E+04   -0.44823E+04  2268   0.218E+02
DAV:   3    -0.117376040257E+04   -0.11816E+04   -0.11745E+04  1872   0.118E+02
DAV:   4    -0.122537783406E+04   -0.51617E+02   -0.51209E+02  1872   0.329E+01
DAV:   5    -0.122661576017E+04   -0.12379E+01   -0.12329E+01  2016   0.480E+00    0.647E+01
RMM:   6    -0.121350469015E+04    0.13111E+02   -0.24436E+01  1440   0.538E+00    0.508E+01
RMM:   7    -0.119703962360E+04    0.16465E+02   -0.85643E+00  1440   0.367E+00    0.409E+01
RMM:   8    -0.116849567844E+04    0.28544E+02   -0.49726E+01  1440   0.868E+00    0.259E+01
RMM:   9    -0.116186468338E+04    0.66310E+01   -0.21101E+01  1440   0.562E+00    0.176E+01
RMM:  10    -0.116373108801E+04   -0.18664E+01   -0.94906E+00  1440   0.380E+00    0.115E+01
RMM:  11    -0.116223273338E+04    0.14984E+01   -0.22353E+00  1466   0.176E+00    0.696E+00
RMM:  12    -0.116172563018E+04    0.50710E+00   -0.46169E-01  1440   0.693E-01    0.549E+00
RMM:  13    -0.116133568314E+04    0.38995E+00   -0.20286E+00  1440   0.167E+00    0.156E+00
RMM:  14    -0.116131375041E+04    0.21933E-01   -0.53114E-02  1473   0.325E-01    0.888E-01
RMM:  15    -0.116130693138E+04    0.68190E-02   -0.47001E-02  1447   0.209E-01    0.498E-01
RMM:  16    -0.116130649257E+04    0.43881E-03   -0.44012E-03  1441   0.810E-02    0.388E-01
RMM:  17    -0.116130566009E+04    0.83248E-03   -0.34992E-03  1441   0.711E-02    0.243E-01
RMM:  18    -0.116130582263E+04   -0.16254E-03   -0.13929E-03  1440   0.473E-02    0.186E-01
RMM:  19    -0.116130556510E+04    0.25753E-03   -0.50678E-04  1021   0.249E-02    0.907E-02
RMM:  20    -0.116130549939E+04    0.65708E-04   -0.38294E-04  1077   0.230E-02
   1 F= -.11683691E+04 E0= -.11683687E+04  d E =-.116837E+04  mag=    -0.9964
       N       E                     dE             d eps       ncg     rms          rms(c)
DAV:   1    -0.116130451765E+04    0.10475E-02   -0.18573E+00  1584   0.196E+00    0.505E-01
RMM:   2    -0.116130748775E+04   -0.29701E-02   -0.35148E-02  1440   0.283E-01    0.482E-01
RMM:   3    -0.116130718813E+04    0.29962E-03   -0.24975E-03  1497   0.602E-02    0.432E-01
RMM:   4    -0.116130577565E+04    0.14125E-02   -0.48336E-03  1442   0.838E-02    0.182E-01
RMM:   5    -0.116130576223E+04    0.13415E-04   -0.78698E-04  1323   0.344E-02
   2 F= -.11683694E+04 E0= -.11683689E+04  d E =-.337866E-03  mag=    -0.9905
       N       E                     dE             d eps       ncg     rms          rms(c)
DAV:   1    -0.116130843514E+04   -0.26595E-02   -0.42841E-01  1512   0.938E-01    0.226E-01
RMM:   2    -0.116130893797E+04   -0.50283E-03   -0.69946E-03  1440   0.130E-01    0.216E-01
RMM:   3    -0.116130879559E+04    0.14238E-03   -0.41567E-04  1040   0.268E-02    0.191E-01
RMM:   4    -0.116130837807E+04    0.41752E-03   -0.13682E-03  1409   0.452E-02    0.772E-02
RMM:   5    -0.116130837052E+04    0.75503E-05   -0.15585E-04   908   0.169E-02
   3 F= -.11683720E+04 E0= -.11683716E+04  d E =-.290792E-02  mag=    -0.9924
       N       E                     dE             d eps       ncg     rms          rms(c)
DAV:   1    -0.116131021172E+04   -0.18337E-02   -0.14742E+00  1512   0.159E+00    0.371E-01
RMM:   2    -0.116131169487E+04   -0.14831E-02   -0.22596E-02  1440   0.226E-01    0.326E-01
RMM:   3    -0.116131107337E+04    0.62149E-03   -0.14784E-03  1383   0.494E-02    0.266E-01
RMM:   4    -0.116131012983E+04    0.94354E-03   -0.30109E-03  1440   0.627E-02    0.116E-01
RMM:   5    -0.116131009965E+04    0.30184E-04   -0.52835E-04  1090   0.278E-02
   4 F= -.11683731E+04 E0= -.11683726E+04  d E =-.118098E-02  mag=    -0.9896
       N       E                     dE             d eps       ncg     rms          rms(c)
DAV:   1    -0.116131069181E+04   -0.56197E-03   -0.20439E-01  1584   0.590E-01    0.134E-01
RMM:   2    -0.116131084816E+04   -0.15635E-03   -0.30641E-03  1437   0.829E-02    0.120E-01
RMM:   3    -0.116131071799E+04    0.13017E-03   -0.19851E-04   915   0.189E-02    0.978E-02
RMM:   4    -0.116131053703E+04    0.18096E-03   -0.57897E-04  1208   0.283E-02    0.403E-02
RMM:   5    -0.116131053281E+04    0.42207E-05   -0.93013E-05   875   0.133E-02
   5 F= -.11683738E+04 E0= -.11683733E+04  d E =-.181726E-02  mag=    -0.9908
       N       E                     dE             d eps       ncg     rms          rms(c)
DAV:   1    -0.116131135078E+04   -0.81375E-03   -0.13261E+00  1512   0.145E+00    0.249E-01
RMM:   2    -0.116131277398E+04   -0.14232E-02   -0.19714E-02  1440   0.208E-01    0.229E-01
RMM:   3    -0.116131252243E+04    0.25156E-03   -0.11583E-03  1230   0.428E-02    0.208E-01
RMM:   4    -0.116131185432E+04    0.66811E-03   -0.18698E-03  1404   0.479E-02    0.973E-02
RMM:   5    -0.116131183179E+04    0.22530E-04   -0.55679E-04  1057   0.266E-02
   6 F= -.11683749E+04 E0= -.11683743E+04  d E =-.111388E-02  mag=    -0.9884
       N       E                     dE             d eps       ncg     rms          rms(c)
DAV:   1    -0.116131206918E+04   -0.21486E-03   -0.10524E-01  1584   0.406E-01    0.659E-02
RMM:   2    -0.116131216263E+04   -0.93450E-04   -0.14779E-03  1326   0.567E-02    0.613E-02
RMM:   3    -0.116131213072E+04    0.31907E-04   -0.82954E-05   875   0.130E-02
   7 F= -.11683752E+04 E0= -.11683747E+04  d E =-.146274E-02  mag=    -0.9892
       N       E                     dE             d eps       ncg     rms          rms(c)
DAV:   1    -0.116131271182E+04   -0.54919E-03   -0.78934E-01  1584   0.112E+00    0.163E-01
RMM:   2    -0.116131363787E+04   -0.92605E-03   -0.11558E-02  1440   0.157E-01    0.151E-01
RMM:   3    -0.116131358347E+04    0.54398E-04   -0.68671E-04  1118   0.336E-02
   8 F= -.11683767E+04 E0= -.11683760E+04  d E =-.141322E-02  mag=    -0.9874
       N       E                     dE             d eps       ncg     rms          rms(c)
DAV:   1    -0.116131210703E+04    0.15308E-02   -0.10848E+00  1584   0.130E+00    0.264E-01
RMM:   2    -0.116131310079E+04   -0.99376E-03   -0.14909E-02  1440   0.176E-01    0.250E-01
RMM:   3    -0.116131291700E+04    0.18379E-03   -0.92450E-04  1158   0.389E-02    0.229E-01
RMM:   4    -0.116131241344E+04    0.50356E-03   -0.26148E-03  1395   0.562E-02    0.842E-02
RMM:   5    -0.116131246360E+04   -0.50165E-04   -0.34103E-04   988   0.211E-02
   9 F= -.11683755E+04 E0= -.11683748E+04  d E =-.262926E-03  mag=    -0.9848
       N       E                     dE             d eps       ncg     rms          rms(c)
DAV:   1    -0.116131315594E+04   -0.74251E-03   -0.42691E-01  1548   0.816E-01    0.117E-01
RMM:   2    -0.116131359634E+04   -0.44040E-03   -0.58673E-03  1440   0.110E-01    0.112E-01
RMM:   3    -0.116131354840E+04    0.47935E-04   -0.34378E-04  1008   0.236E-02
  10 F= -.11683766E+04 E0= -.11683759E+04  d E =-.136468E-02  mag=    -0.9862
       N       E                     dE             d eps       ncg     rms          rms(c)
DAV:   1    -0.116131402037E+04   -0.42403E-03   -0.24377E-01  1440   0.858E-01    0.144E-01
RMM:   2    -0.116131438644E+04   -0.36607E-03   -0.51947E-03  1452   0.123E-01    0.136E-01
RMM:   3    -0.116131427494E+04    0.11150E-03   -0.24268E-04  1011   0.240E-02    0.123E-01
RMM:   4    -0.116131408395E+04    0.19098E-03   -0.19788E-03  1422   0.514E-02    0.470E-02
RMM:   5    -0.116131403495E+04    0.49003E-04   -0.38939E-05   880   0.107E-02
  11 F= -.11683768E+04 E0= -.11683762E+04  d E =-.232290E-03  mag=    -0.9867
       N       E                     dE             d eps       ncg     rms          rms(c)
DAV:   1    -0.116131440445E+04   -0.32050E-03   -0.41602E-02  1584   0.355E-01    0.449E-02
RMM:   2    -0.116131445983E+04   -0.55380E-04   -0.77966E-04  1354   0.473E-02
  12 F= -.11683774E+04 E0= -.11683767E+04  d E =-.761007E-03  mag=    -0.9866
