       N       E                     dE             d eps       ncg     rms          rms(c)
DAV:   1     0.501784104448E+04    0.50178E+04   -0.17392E+05  1836   0.926E+02
DAV:   2    -0.433690605996E+02   -0.50612E+04   -0.46450E+04  2628   0.211E+02
DAV:   3    -0.119220262018E+04   -0.11488E+04   -0.11438E+04  2016   0.111E+02
DAV:   4    -0.123949468800E+04   -0.47292E+02   -0.47027E+02  2016   0.301E+01
DAV:   5    -0.124072573919E+04   -0.12311E+01   -0.12275E+01  2340   0.442E+00    0.654E+01
RMM:   6    -0.122265565510E+04    0.18070E+02   -0.20652E+01  1584   0.445E+00    0.525E+01
RMM:   7    -0.120436797636E+04    0.18288E+02   -0.13737E+01  1584   0.428E+00    0.401E+01
RMM:   8    -0.118327168260E+04    0.21096E+02   -0.24133E+01  1584   0.566E+00    0.286E+01
RMM:   9    -0.117369565950E+04    0.95760E+01   -0.16296E+01  1584   0.467E+00    0.206E+01
RMM:  10    -0.117458917367E+04   -0.89351E+00   -0.20330E+01  1584   0.511E+00    0.117E+01
RMM:  11    -0.117606079376E+04   -0.14716E+01   -0.82664E+00  1618   0.216E+00    0.887E+00
RMM:  12    -0.117604480096E+04    0.15993E-01   -0.90931E-01  1586   0.919E-01    0.894E+00
RMM:  13    -0.117331364908E+04    0.27312E+01   -0.30586E+00  1584   0.141E+00    0.438E+00
RMM:  14    -0.117319161689E+04    0.12203E+00   -0.15337E-01  1605   0.326E-01    0.381E+00
RMM:  15    -0.117296531621E+04    0.22630E+00   -0.76660E-02  1590   0.174E-01    0.252E+00
RMM:  16    -0.117288650184E+04    0.78814E-01   -0.51049E-02  1584   0.133E-01    0.648E-01
RMM:  17    -0.117302052810E+04   -0.13403E+00   -0.61893E-02  1566   0.149E-01    0.295E+00
RMM:  18    -0.117291005743E+04    0.11047E+00   -0.17545E-02  1582   0.911E-02    0.161E+00
RMM:  19    -0.117288735005E+04    0.22707E-01   -0.14696E-02  1539   0.742E-02    0.242E-01
RMM:  20    -0.117289432396E+04   -0.69739E-02   -0.24849E-03  1389   0.442E-02    0.403E-01
RMM:  21    -0.117289396065E+04    0.36330E-03   -0.10787E-03  1223   0.300E-02    0.333E-01
RMM:  22    -0.117289302348E+04    0.93717E-03   -0.16029E-04  1057   0.166E-02    0.873E-02
RMM:  23    -0.117289313163E+04   -0.10815E-03   -0.33641E-05  1010   0.715E-03    0.688E-02
RMM:  24    -0.117289319437E+04   -0.62737E-04   -0.58494E-06   670   0.379E-03
   1 F= -.11802705E+04 E0= -.11802705E+04  d E =-.118027E+04  mag=     0.0002
       N       E                     dE             d eps       ncg     rms          rms(c)
DAV:   1    -0.117288584480E+04    0.72868E-02   -0.20677E+00  1692   0.211E+00    0.631E-01
RMM:   2    -0.117288987106E+04   -0.40263E-02   -0.48828E-02  1586   0.291E-01    0.551E-01
RMM:   3    -0.117288956598E+04    0.30508E-03   -0.29625E-03  1658   0.613E-02    0.497E-01
RMM:   4    -0.117288902451E+04    0.54147E-03   -0.12352E-03  1563   0.411E-02    0.353E-01
RMM:   5    -0.117288912723E+04   -0.10271E-03   -0.33564E-03  1584   0.639E-02    0.128E-01
RMM:   6    -0.117288907242E+04    0.54802E-04   -0.17283E-04  1061   0.160E-02
   2 F= -.11802672E+04 E0= -.11802672E+04  d E =0.326506E-02  mag=     0.0000
       N       E                     dE             d eps       ncg     rms          rms(c)
DAV:   1    -0.117289493869E+04   -0.58115E-02   -0.72026E-01  1692   0.124E+00    0.366E-01
RMM:   2    -0.117289611041E+04   -0.11717E-02   -0.14692E-02  1588   0.163E-01    0.332E-01
RMM:   3    -0.117289600362E+04    0.10678E-03   -0.87357E-04  1328   0.341E-02    0.294E-01
RMM:   4    -0.117289611616E+04   -0.11254E-03   -0.76722E-04  1450   0.320E-02    0.257E-01
RMM:   5    -0.117289660913E+04   -0.49297E-03   -0.10528E-03  1497   0.345E-02    0.217E-01
RMM:   6    -0.117289637066E+04    0.23846E-03   -0.66578E-05  1021   0.132E-02    0.218E-01
RMM:   7    -0.117289745659E+04   -0.10859E-02   -0.45694E-04  1115   0.224E-02    0.249E-01
RMM:   8    -0.117288926833E+04    0.81883E-02   -0.38379E-03  1457   0.584E-02    0.146E-01
RMM:   9    -0.117289495835E+04   -0.56900E-02   -0.46280E-04  1084   0.238E-02    0.126E-01
RMM:  10    -0.117289463978E+04    0.31858E-03   -0.48293E-04  1062   0.184E-02    0.260E-02
RMM:  11    -0.117289523516E+04   -0.59539E-03   -0.85169E-05  1014   0.112E-02    0.134E-02
RMM:  12    -0.117289529704E+04   -0.61875E-04   -0.27071E-05   987   0.636E-03
   3 F= -.11802729E+04 E0= -.11802729E+04  d E =-.245542E-02  mag=    -0.0000
       N       E                     dE             d eps       ncg     rms          rms(c)
DAV:   1    -0.117289662724E+04   -0.13921E-02   -0.68293E-01  1728   0.123E+00    0.380E-01
RMM:   2    -0.117289710349E+04   -0.47626E-03   -0.13330E-02  1584   0.161E-01    0.355E-01
RMM:   3    -0.117289669772E+04    0.40577E-03   -0.71450E-04  1284   0.348E-02    0.255E-01
RMM:   4    -0.117289627383E+04    0.42389E-03   -0.70021E-04  1500   0.298E-02    0.175E-01
RMM:   5    -0.117289617595E+04    0.97875E-04   -0.14430E-03  1583   0.409E-02    0.751E-02
RMM:   6    -0.117289615497E+04    0.20979E-04   -0.21505E-04  1073   0.166E-02
   4 F= -.11802733E+04 E0= -.11802733E+04  d E =-.404953E-03  mag=    -0.0000
       N       E                     dE             d eps       ncg     rms          rms(c)
DAV:   1    -0.117289686273E+04   -0.68678E-03   -0.14950E-01  1728   0.576E-01    0.175E-01
RMM:   2    -0.117289690611E+04   -0.43381E-04   -0.27686E-03  1569   0.733E-02    0.164E-01
RMM:   3    -0.117289682471E+04    0.81405E-04   -0.13381E-04  1040   0.160E-02
   5 F= -.11802742E+04 E0= -.11802742E+04  d E =-.128657E-02  mag=    -0.0000
       N       E                     dE             d eps       ncg     rms          rms(c)
DAV:   1    -0.117289716842E+04   -0.26231E-03   -0.26173E-01  1728   0.792E-01    0.315E-01
RMM:   2    -0.117289705393E+04    0.11449E-03   -0.65505E-03  1584   0.116E-01    0.303E-01
RMM:   3    -0.117289669440E+04    0.35952E-03   -0.32713E-04  1154   0.250E-02    0.216E-01
RMM:   4    -0.117289596319E+04    0.73121E-03   -0.14079E-03  1584   0.424E-02    0.127E-01
RMM:   5    -0.117289592780E+04    0.35388E-04   -0.94219E-04  1582   0.345E-02
   6 F= -.11802734E+04 E0= -.11802734E+04  d E =0.795085E-03  mag=    -0.0000
       N       E                     dE             d eps       ncg     rms          rms(c)
DAV:   1    -0.117289755406E+04   -0.15909E-02   -0.11807E-01  1728   0.530E-01    0.207E-01
RMM:   2    -0.117289757620E+04   -0.22144E-04   -0.29275E-03  1584   0.771E-02    0.192E-01
RMM:   3    -0.117289743584E+04    0.14037E-03   -0.14967E-04  1036   0.173E-02    0.139E-01
RMM:   4    -0.117289740960E+04    0.26231E-04   -0.57278E-05   992   0.107E-02
   7 F= -.11802748E+04 E0= -.11802748E+04  d E =-.618016E-03  mag=    -0.0000
