       N       E                     dE             d eps       ncg     rms          rms(c)
DAV:   1     0.485326185574E+04    0.48533E+04   -0.17340E+05  1872   0.910E+02
DAV:   2    -0.687735866245E+02   -0.49220E+04   -0.44809E+04  2520   0.205E+02
DAV:   3    -0.119253787551E+04   -0.11238E+04   -0.11192E+04  2124   0.109E+02
DAV:   4    -0.123740699029E+04   -0.44869E+02   -0.44641E+02  2088   0.288E+01
DAV:   5    -0.123856928962E+04   -0.11623E+01   -0.11596E+01  2340   0.437E+00    0.671E+01
RMM:   6    -0.122057243367E+04    0.17997E+02   -0.20685E+01  1760   0.440E+00    0.521E+01
RMM:   7    -0.119992917185E+04    0.20643E+02   -0.16524E+01  1593   0.458E+00    0.389E+01
RMM:   8    -0.117406120513E+04    0.25868E+02   -0.41884E+01  1586   0.728E+00    0.246E+01
RMM:   9    -0.117111536004E+04    0.29458E+01   -0.35334E+01  1587   0.661E+00    0.109E+01
RMM:  10    -0.117121197325E+04   -0.96613E-01   -0.25009E+00  1710   0.200E+00    0.793E+00
RMM:  11    -0.117075528862E+04    0.45668E+00   -0.62903E-01  1701   0.812E-01    0.516E+00
RMM:  12    -0.117025418376E+04    0.50110E+00   -0.15828E+00  1623   0.133E+00    0.124E+00
RMM:  13    -0.117022750689E+04    0.26677E-01   -0.15649E-01  1740   0.493E-01    0.705E-01
RMM:  14    -0.117022321457E+04    0.42923E-02   -0.27589E-02  1775   0.184E-01    0.324E-01
RMM:  15    -0.117022280061E+04    0.41396E-03   -0.34444E-03  1804   0.763E-02    0.229E-01
RMM:  16    -0.117022257210E+04    0.22851E-03   -0.25134E-03  1631   0.521E-02    0.143E-01
RMM:  17    -0.117022282526E+04   -0.25316E-03   -0.47457E-04  1254   0.300E-02    0.825E-02
RMM:  18    -0.117022285059E+04   -0.25325E-04   -0.13228E-04  1092   0.168E-02
   1 F= -.11775015E+04 E0= -.11775015E+04  d E =-.117750E+04  mag=     0.9997
       N       E                     dE             d eps       ncg     rms          rms(c)
DAV:   1    -0.117022176442E+04    0.10608E-02   -0.44329E-01  1692   0.111E+00    0.181E-01
RMM:   2    -0.117022331390E+04   -0.15495E-02   -0.18699E-02  1812   0.188E-01    0.171E-01
RMM:   3    -0.117022317337E+04    0.14054E-03   -0.12475E-03  1653   0.509E-02    0.189E-01
RMM:   4    -0.117022317373E+04   -0.36869E-06   -0.13231E-04  1086   0.155E-02
   2 F= -.11775022E+04 E0= -.11775022E+04  d E =-.645319E-03  mag=     0.9999
       N       E                     dE             d eps       ncg     rms          rms(c)
DAV:   1    -0.117022352747E+04   -0.35411E-03   -0.61122E-02  1584   0.411E-01    0.151E-01
RMM:   2    -0.117022375892E+04   -0.23145E-03   -0.24711E-03  1805   0.697E-02    0.114E-01
RMM:   3    -0.117022370740E+04    0.51521E-04   -0.26091E-04  1152   0.234E-02
   3 F= -.11775026E+04 E0= -.11775026E+04  d E =-.105832E-02  mag=     1.0000
       N       E                     dE             d eps       ncg     rms          rms(c)
DAV:   1    -0.117022457142E+04   -0.81250E-03   -0.53282E-02  1836   0.368E-01    0.877E-02
RMM:   2    -0.117022459842E+04   -0.27006E-04   -0.13025E-03  1766   0.524E-02    0.821E-02
RMM:   3    -0.117022453758E+04    0.60845E-04   -0.82481E-05  1084   0.148E-02
   4 F= -.11775035E+04 E0= -.11775035E+04  d E =-.889899E-03  mag=     1.0000
       N       E                     dE             d eps       ncg     rms          rms(c)
DAV:   1    -0.117022622538E+04   -0.16270E-02   -0.48927E-01  1728   0.111E+00    0.248E-01
RMM:   2    -0.117022668754E+04   -0.46216E-03   -0.12836E-02  1814   0.162E-01    0.230E-01
RMM:   3    -0.117022608017E+04    0.60737E-03   -0.95926E-04  1508   0.436E-02    0.214E-01
RMM:   4    -0.117022546873E+04    0.61144E-03   -0.64929E-04  1550   0.295E-02    0.155E-01
RMM:   5    -0.117022517060E+04    0.29813E-03   -0.20400E-03  1588   0.496E-02    0.520E-02
RMM:   6    -0.117022517918E+04   -0.85806E-05   -0.75144E-05  1070   0.131E-02
   5 F= -.11775043E+04 E0= -.11775043E+04  d E =-.172068E-02  mag=     1.0000
       N       E                     dE             d eps       ncg     rms          rms(c)
DAV:   1    -0.117022670531E+04   -0.15347E-02   -0.14244E-01  1728   0.617E-01    0.901E-02
RMM:   2    -0.117022705041E+04   -0.34511E-03   -0.43615E-03  1775   0.969E-02    0.846E-02
RMM:   3    -0.117022701474E+04    0.35669E-04   -0.24245E-04  1177   0.256E-02
   6 F= -.11775060E+04 E0= -.11775060E+04  d E =-.166903E-02  mag=     1.0000
       N       E                     dE             d eps       ncg     rms          rms(c)
DAV:   1    -0.117022715358E+04   -0.10317E-03   -0.16701E-02  1728   0.211E-01    0.113E-01
RMM:   2    -0.117022711866E+04    0.34927E-04   -0.52429E-04  1398   0.345E-02
   7 F= -.11775060E+04 E0= -.11775060E+04  d E =-.171680E-02  mag=     1.0000
       N       E                     dE             d eps       ncg     rms          rms(c)
DAV:   1    -0.117022823449E+04   -0.10809E-02   -0.70810E-02  1728   0.435E-01    0.125E-01
RMM:   2    -0.117022840030E+04   -0.16581E-03   -0.30273E-03  1823   0.748E-02    0.118E-01
RMM:   3    -0.117022833900E+04    0.61298E-04   -0.17862E-04  1114   0.202E-02
   8 F= -.11775071E+04 E0= -.11775071E+04  d E =-.110177E-02  mag=     1.0000
       N       E                     dE             d eps       ncg     rms          rms(c)
DAV:   1    -0.117022854805E+04   -0.14775E-03   -0.42902E-01  1728   0.107E+00    0.265E-01
RMM:   2    -0.117022965628E+04   -0.11082E-02   -0.18060E-02  1823   0.184E-01    0.253E-01
RMM:   3    -0.117022932925E+04    0.32704E-03   -0.11332E-03  1397   0.477E-02    0.271E-01
RMM:   4    -0.117022935376E+04   -0.24512E-04   -0.13815E-04  1072   0.148E-02
   9 F= -.11775079E+04 E0= -.11775079E+04  d E =-.183593E-02  mag=     1.0000
       N       E                     dE             d eps       ncg     rms          rms(c)
DAV:   1    -0.117023026309E+04   -0.93384E-03   -0.18324E-02  1800   0.209E-01    0.311E-01
RMM:   2    -0.117022970598E+04    0.55711E-03   -0.44938E-04  1417   0.314E-02    0.276E-01
RMM:   3    -0.117022866796E+04    0.10380E-02   -0.65825E-03  1598   0.843E-02    0.780E-02
RMM:   4    -0.117022861741E+04    0.50551E-04   -0.21601E-04  1200   0.213E-02
  10 F= -.11775071E+04 E0= -.11775071E+04  d E =0.794970E-03  mag=     1.0000
       N       E                     dE             d eps       ncg     rms          rms(c)
DAV:   1    -0.117022859304E+04    0.74921E-04   -0.17777E-04  1584   0.238E-02    0.515E-02
RMM:   2    -0.117022857335E+04    0.19695E-04   -0.33154E-05   982   0.892E-03
  11 F= -.11775070E+04 E0= -.11775070E+04  d E =0.834042E-03  mag=     1.0000
