       N       E                     dE             d eps       ncg     rms          rms(c)
DAV:   1     0.498406000897E+04    0.49841E+04   -0.17022E+05  1800   0.910E+02
DAV:   2    -0.377727549249E+02   -0.50218E+04   -0.45807E+04  2520   0.212E+02
DAV:   3    -0.119569979489E+04   -0.11579E+04   -0.11516E+04  2088   0.112E+02
DAV:   4    -0.124456045538E+04   -0.48861E+02   -0.48586E+02  2052   0.309E+01
DAV:   5    -0.124593161479E+04   -0.13712E+01   -0.13677E+01  2304   0.478E+00    0.691E+01
RMM:   6    -0.122744004455E+04    0.18492E+02   -0.28602E+01  1599   0.589E+00    0.579E+01
RMM:   7    -0.121215361594E+04    0.15286E+02   -0.83439E+00  1585   0.350E+00    0.442E+01
RMM:   8    -0.118713402354E+04    0.25020E+02   -0.30712E+01  1585   0.652E+00    0.287E+01
RMM:   9    -0.117600800832E+04    0.11126E+02   -0.20560E+01  1584   0.556E+00    0.199E+01
RMM:  10    -0.117704733882E+04   -0.10393E+01   -0.20142E+01  1584   0.539E+00    0.934E+00
RMM:  11    -0.117659030600E+04    0.45703E+00   -0.13325E+00  1630   0.215E+00    0.655E+00
RMM:  12    -0.117613914815E+04    0.45116E+00   -0.44416E-01  1586   0.723E-01    0.544E+00
RMM:  13    -0.117575774811E+04    0.38140E+00   -0.14700E+00  1584   0.142E+00    0.166E+00
RMM:  14    -0.117575408722E+04    0.36609E-02   -0.62655E-02  1643   0.468E-01    0.155E+00
RMM:  15    -0.117575161695E+04    0.24703E-02   -0.98755E-03  1629   0.104E-01    0.138E+00
RMM:  16    -0.117575020798E+04    0.14090E-02   -0.61708E-03  1587   0.108E-01    0.962E-01
RMM:  17    -0.117575001429E+04    0.19369E-03   -0.40704E-03  1708   0.807E-02    0.555E-01
RMM:  18    -0.117574990072E+04    0.11357E-03   -0.60119E-04  1232   0.332E-02    0.379E-01
RMM:  19    -0.117574959969E+04    0.30103E-03   -0.78168E-04  1391   0.322E-02    0.202E-01
RMM:  20    -0.117574958990E+04    0.97886E-05   -0.12668E-04  1067   0.187E-02
   1 F= -.11830812E+04 E0= -.11830812E+04  d E =-.118308E+04  mag=    -0.0054
       N       E                     dE             d eps       ncg     rms          rms(c)
DAV:   1    -0.117574915528E+04    0.44441E-03   -0.48220E-01  1620   0.106E+00    0.217E-01
RMM:   2    -0.117574999385E+04   -0.83857E-03   -0.13999E-02  1599   0.166E-01    0.198E-01
RMM:   3    -0.117574959233E+04    0.40152E-03   -0.89067E-04  1541   0.532E-02    0.188E-01
RMM:   4    -0.117574916856E+04    0.42377E-03   -0.39895E-04  1331   0.243E-02    0.150E-01
RMM:   5    -0.117574871652E+04    0.45204E-03   -0.17045E-03  1584   0.464E-02    0.594E-02
RMM:   6    -0.117574872253E+04   -0.60106E-05   -0.17943E-04  1066   0.207E-02
   2 F= -.11830805E+04 E0= -.11830805E+04  d E =0.634166E-03  mag=    -0.0005
       N       E                     dE             d eps       ncg     rms          rms(c)
DAV:   1    -0.117575052760E+04   -0.18111E-02   -0.15447E-01  1656   0.597E-01    0.118E-01
RMM:   2    -0.117575067054E+04   -0.14294E-03   -0.35746E-03  1584   0.886E-02    0.108E-01
RMM:   3    -0.117575051044E+04    0.16010E-03   -0.19455E-04  1102   0.261E-02    0.106E-01
RMM:   4    -0.117575044233E+04    0.68110E-04   -0.64745E-05   993   0.142E-02
   3 F= -.11830821E+04 E0= -.11830821E+04  d E =-.951807E-03  mag=     0.0001
