       N       E                     dE             d eps       ncg     rms          rms(c)
DAV:   1     0.491210462825E+04    0.49121E+04   -0.17135E+05  1728   0.989E+02
DAV:   2     0.166319684951E+02   -0.48955E+04   -0.44950E+04  2268   0.218E+02
DAV:   3    -0.118086240162E+04   -0.11975E+04   -0.11913E+04  1872   0.119E+02
DAV:   4    -0.123352075825E+04   -0.52658E+02   -0.52286E+02  1836   0.331E+01
DAV:   5    -0.123479295814E+04   -0.12722E+01   -0.12689E+01  2052   0.483E+00    0.790E+01
RMM:   6    -0.122082811454E+04    0.13965E+02   -0.76381E+00  1440   0.339E+00    0.687E+01
RMM:   7    -0.117065741442E+04    0.50171E+02   -0.10902E+02  1440   0.124E+01    0.376E+01
RMM:   8    -0.116956298570E+04    0.10944E+01   -0.87033E+00  1445   0.382E+00    0.269E+01
RMM:   9    -0.116911939760E+04    0.44359E+00   -0.28210E+01  1440   0.648E+00    0.969E+00
RMM:  10    -0.116819747806E+04    0.92192E+00   -0.64424E-01  1459   0.119E+00    0.762E+00
RMM:  11    -0.116763264197E+04    0.56484E+00   -0.25495E+00  1440   0.188E+00    0.302E+00
RMM:  12    -0.116766693268E+04   -0.34291E-01   -0.30780E-01  1440   0.636E-01    0.190E+00
RMM:  13    -0.116755414555E+04    0.11279E+00   -0.24927E-01  1440   0.597E-01    0.672E-01
RMM:  14    -0.116755079384E+04    0.33517E-02   -0.26219E-02  1445   0.208E-01    0.403E-01
RMM:  15    -0.116755156515E+04   -0.77131E-03   -0.80314E-03  1470   0.104E-01    0.316E-01
RMM:  16    -0.116755057548E+04    0.98967E-03   -0.70632E-03  1440   0.103E-01    0.136E-01
RMM:  17    -0.116755057776E+04   -0.22755E-05   -0.26293E-04   983   0.239E-02
   1 F= -.11748499E+04 E0= -.11748499E+04  d E =-.117485E+04  mag=    -0.0048
       N       E                     dE             d eps       ncg     rms          rms(c)
DAV:   1    -0.116754913567E+04    0.14398E-02   -0.49567E-01  1548   0.117E+00    0.839E-01
RMM:   2    -0.116755009222E+04   -0.95656E-03   -0.13682E-02  1441   0.170E-01    0.747E-01
RMM:   3    -0.116754939980E+04    0.69243E-03   -0.24604E-03  1455   0.614E-02    0.390E-01
RMM:   4    -0.116754956852E+04   -0.16872E-03   -0.17207E-03  1442   0.489E-02    0.102E-01
RMM:   5    -0.116754929485E+04    0.27367E-03   -0.41613E-04  1058   0.203E-02    0.567E-02
RMM:   6    -0.116754928661E+04    0.82341E-05   -0.73922E-05   883   0.113E-02
   2 F= -.11748489E+04 E0= -.11748489E+04  d E =0.940728E-03  mag=    -0.0002
       N       E                     dE             d eps       ncg     rms          rms(c)
DAV:   1    -0.116755139189E+04   -0.20970E-02   -0.19152E-01  1476   0.727E-01    0.547E-01
RMM:   2    -0.116755164117E+04   -0.24928E-03   -0.43959E-03  1441   0.102E-01    0.483E-01
RMM:   3    -0.116755130712E+04    0.33405E-03   -0.12053E-03  1436   0.423E-02    0.215E-01
RMM:   4    -0.116755135699E+04   -0.49863E-04   -0.52242E-04  1236   0.277E-02
   3 F= -.11748508E+04 E0= -.11748508E+04  d E =-.909743E-03  mag=    -0.0000
