       N       E                     dE             d eps       ncg     rms          rms(c)
DAV:   1     0.491861620827E+04    0.49186E+04   -0.17119E+05  1728   0.988E+02
DAV:   2     0.712333904532E+01   -0.49115E+04   -0.45253E+04  2304   0.219E+02
DAV:   3    -0.118059068403E+04   -0.11877E+04   -0.11814E+04  1872   0.119E+02
DAV:   4    -0.123345016462E+04   -0.52859E+02   -0.52501E+02  1836   0.344E+01
DAV:   5    -0.123489090171E+04   -0.14407E+01   -0.14359E+01  1944   0.538E+00    0.623E+01
RMM:   6    -0.121892368724E+04    0.15967E+02   -0.92587E+00  1502   0.381E+00    0.506E+01
RMM:   7    -0.118528750337E+04    0.33636E+02   -0.12660E+02  1535   0.129E+01    0.420E+01
RMM:   8    -0.117730195402E+04    0.79855E+01   -0.38741E+00  1562   0.311E+00    0.322E+01
RMM:   9    -0.117018122110E+04    0.71207E+01   -0.63502E+00  1489   0.299E+00    0.223E+01
RMM:  10    -0.116778650734E+04    0.23947E+01   -0.35888E+01  1465   0.746E+00    0.133E+01
RMM:  11    -0.116836993357E+04   -0.58343E+00   -0.19145E+00  1509   0.241E+00    0.125E+01
RMM:  12    -0.116710800506E+04    0.12619E+01   -0.59384E-01  1536   0.923E-01    0.901E+00
RMM:  13    -0.116546724772E+04    0.16408E+01   -0.13606E+00  1516   0.138E+00    0.491E+00
RMM:  14    -0.116502445450E+04    0.44279E+00   -0.52724E-01  1589   0.862E-01    0.303E+00
RMM:  15    -0.116496029804E+04    0.64156E-01   -0.20397E-01  1644   0.482E-01    0.245E+00
RMM:  16    -0.116499314272E+04   -0.32845E-01   -0.73517E-02  1531   0.319E-01    0.196E+00
RMM:  17    -0.116499804389E+04   -0.49012E-02   -0.14228E-02  1650   0.156E-01    0.190E+00
RMM:  18    -0.116497986577E+04    0.18178E-01   -0.19338E-02  1454   0.157E-01    0.122E+00
RMM:  19    -0.116495374911E+04    0.26117E-01   -0.31461E-02  1449   0.213E-01    0.104E+00
RMM:  20    -0.116496608018E+04   -0.12331E-01   -0.14319E-02  1610   0.125E-01    0.379E-01
RMM:  21    -0.116497566872E+04   -0.95885E-02   -0.10126E-02  1489   0.937E-02    0.368E-01
RMM:  22    -0.116497532483E+04    0.34390E-03   -0.17192E-03  1349   0.531E-02    0.136E-01
RMM:  23    -0.116497541286E+04   -0.88036E-04   -0.90151E-04  1123   0.376E-02
   1 F= -.11719530E+04 E0= -.11719530E+04  d E =-.117195E+04  mag=    -0.9914
       N       E                     dE             d eps       ncg     rms          rms(c)
DAV:   1    -0.116497217130E+04    0.31535E-02   -0.55102E-01  1620   0.140E+00    0.227E-01
RMM:   2    -0.116497419293E+04   -0.20216E-02   -0.25543E-02  1520   0.238E-01    0.244E-01
RMM:   3    -0.116497414591E+04    0.47018E-04   -0.18806E-03  1467   0.690E-02    0.265E-01
RMM:   4    -0.116497422237E+04   -0.76460E-04   -0.26807E-04   980   0.235E-02
   2 F= -.11719520E+04 E0= -.11719519E+04  d E =0.102983E-02  mag=    -1.0011
       N       E                     dE             d eps       ncg     rms          rms(c)
DAV:   1    -0.116497532169E+04   -0.11758E-02   -0.20387E-01  1692   0.847E-01    0.958E-02
RMM:   2    -0.116497626832E+04   -0.94662E-03   -0.98944E-03  1482   0.157E-01    0.122E-01
RMM:   3    -0.116497626850E+04   -0.18391E-06   -0.60999E-04  1106   0.443E-02
   3 F= -.11719539E+04 E0= -.11719539E+04  d E =-.922652E-03  mag=    -1.0004
