       N       E                     dE             d eps       ncg     rms          rms(c)
DAV:   1     0.503219211691E+04    0.50322E+04   -0.17125E+05  1760   0.942E+02
DAV:   2    -0.365513456885E+01   -0.50358E+04   -0.46040E+04  2464   0.219E+02
DAV:   3    -0.119696755075E+04   -0.11933E+04   -0.11840E+04  2048   0.117E+02
DAV:   4    -0.124859858235E+04   -0.51631E+02   -0.51287E+02  2016   0.317E+01
DAV:   5    -0.124999390122E+04   -0.13953E+01   -0.13912E+01  2336   0.501E+00    0.771E+01
RMM:   6    -0.124585712064E+04    0.41368E+01   -0.95353E+01  1638   0.143E+01    0.850E+01
RMM:   7    -0.122199935348E+04    0.23858E+02   -0.17539E+01  1544   0.632E+00    0.643E+01
RMM:   8    -0.122532150934E+04   -0.33222E+01   -0.19490E+01  1582   0.506E+00    0.625E+01
RMM:   9    -0.118827449342E+04    0.37047E+02   -0.14003E+01  1563   0.513E+00    0.375E+01
RMM:  10    -0.117061227230E+04    0.17662E+02   -0.24224E+01  1666   0.661E+00    0.249E+01
RMM:  11    -0.116976342103E+04    0.84885E+00   -0.38985E+00  1667   0.307E+00    0.206E+01
RMM:  12    -0.116938273269E+04    0.38069E+00   -0.83231E+00  1599   0.371E+00    0.119E+01
RMM:  13    -0.116998035089E+04   -0.59762E+00   -0.23865E+00  1616   0.231E+00    0.880E+00
RMM:  14    -0.116964831374E+04    0.33204E+00   -0.61399E-01  1648   0.121E+00    0.511E+00
RMM:  15    -0.116952945440E+04    0.11886E+00   -0.20420E-01  1670   0.602E-01    0.372E+00
RMM:  16    -0.116939242588E+04    0.13703E+00   -0.42285E-01  1556   0.785E-01    0.247E+00
RMM:  17    -0.116932098049E+04    0.71445E-01   -0.21064E-01  1548   0.611E-01    0.920E-01
RMM:  18    -0.116932897294E+04   -0.79924E-02   -0.17909E-02  1609   0.262E-01    0.758E-01
RMM:  19    -0.116932573809E+04    0.32348E-02   -0.90889E-03  1681   0.144E-01    0.388E-01
RMM:  20    -0.116932531301E+04    0.42508E-03   -0.39918E-03  1623   0.833E-02    0.262E-01
RMM:  21    -0.116932502909E+04    0.28392E-03   -0.94987E-04  1615   0.448E-02    0.206E-01
RMM:  22    -0.116932475701E+04    0.27209E-03   -0.60013E-04  1675   0.286E-02    0.158E-01
RMM:  23    -0.116932455501E+04    0.20199E-03   -0.21160E-04  1576   0.185E-02    0.105E-01
RMM:  24    -0.116932445953E+04    0.95481E-04   -0.10972E-04  1573   0.130E-02    0.842E-02
RMM:  25    -0.116932435114E+04    0.10840E-03   -0.60697E-05  1663   0.101E-02    0.670E-02
RMM:  26    -0.116932432943E+04    0.21706E-04   -0.26694E-05  1609   0.670E-03    0.543E-02
RMM:  27    -0.116932430193E+04    0.27505E-04   -0.13237E-05  1499   0.492E-03    0.390E-02
RMM:  28    -0.116932428502E+04    0.16907E-04   -0.69515E-06  1288   0.340E-03    0.299E-02
RMM:  29    -0.116932427503E+04    0.99944E-05   -0.46626E-06  1139   0.267E-03    0.219E-02
RMM:  30    -0.116932426787E+04    0.71570E-05   -0.43699E-06  1178   0.250E-03    0.130E-02
RMM:  31    -0.116932426583E+04    0.20362E-05   -0.11462E-06  1038   0.180E-03    0.883E-03
RMM:  32    -0.116932426519E+04    0.64594E-06   -0.87702E-07  1024   0.142E-03
   1 F= -.11763716E+04 E0= -.11763716E+04  d E =-.117637E+04  mag=    -3.0000
       N       E                     dE             d eps       ncg     rms          rms(c)
DAV:   1    -0.116932080940E+04    0.34564E-02   -0.44881E-01  1632   0.101E+00    0.274E-01
RMM:   2    -0.116932186448E+04   -0.10551E-02   -0.11448E-02  1571   0.161E-01    0.323E-01
RMM:   3    -0.116932207707E+04   -0.21260E-03   -0.25351E-03  1864   0.702E-02    0.302E-01
RMM:   4    -0.116932206309E+04    0.13987E-04   -0.41194E-04  1870   0.262E-02    0.321E-01
RMM:   5    -0.116932212160E+04   -0.58509E-04   -0.51226E-05  1777   0.881E-03    0.296E-01
RMM:   6    -0.116932248102E+04   -0.35942E-03   -0.36207E-04  1596   0.220E-02    0.187E-01
RMM:   7    -0.116932223222E+04    0.24880E-03   -0.17382E-04  1540   0.176E-02    0.174E-01
RMM:   8    -0.116932200343E+04    0.22879E-03   -0.51708E-04  1551   0.259E-02    0.158E-01
RMM:   9    -0.116932198652E+04    0.16907E-04   -0.14358E-04  1823   0.159E-02    0.136E-01
RMM:  10    -0.116932197847E+04    0.80508E-05   -0.15087E-05  1643   0.553E-03    0.126E-01
RMM:  11    -0.116932194458E+04    0.33894E-04   -0.36760E-05  1563   0.793E-03    0.673E-02
RMM:  12    -0.116932193355E+04    0.11027E-04   -0.10781E-04  1648   0.126E-02    0.130E-02
RMM:  13    -0.116932193694E+04   -0.33915E-05   -0.28650E-05  1662   0.693E-03    0.159E-02
RMM:  14    -0.116932193602E+04    0.91670E-06   -0.32233E-06  1177   0.331E-03
   2 F= -.11763699E+04 E0= -.11763699E+04  d E =0.172586E-02  mag=    -3.0000
       N       E                     dE             d eps       ncg     rms          rms(c)
DAV:   1    -0.116932412513E+04   -0.21882E-02   -0.21303E-01  1632   0.692E-01    0.187E-01
RMM:   2    -0.116932452099E+04   -0.39585E-03   -0.45592E-03  1549   0.107E-01    0.222E-01
RMM:   3    -0.116932458992E+04   -0.68936E-04   -0.10016E-03  1818   0.459E-02    0.206E-01
RMM:   4    -0.116932458773E+04    0.21919E-05   -0.19649E-04  1863   0.174E-02    0.224E-01
RMM:   5    -0.116932460899E+04   -0.21256E-04   -0.21872E-05  1636   0.578E-03    0.202E-01
RMM:   6    -0.116932470345E+04   -0.94461E-04   -0.99056E-05  1612   0.116E-02    0.121E-01
RMM:   7    -0.116932462947E+04    0.73984E-04   -0.10098E-04  1553   0.127E-02    0.124E-01
RMM:   8    -0.116932454899E+04    0.80474E-04   -0.19989E-04  1561   0.163E-02    0.954E-02
RMM:   9    -0.116932453981E+04    0.91801E-05   -0.60472E-05  1808   0.103E-02    0.848E-02
RMM:  10    -0.116932453383E+04    0.59826E-05   -0.70417E-06  1413   0.399E-03    0.702E-02
RMM:  11    -0.116932452005E+04    0.13781E-04   -0.53512E-05  1650   0.930E-03    0.977E-03
RMM:  12    -0.116932452166E+04   -0.16153E-05   -0.59356E-06  1440   0.400E-03    0.816E-03
RMM:  13    -0.116932452164E+04    0.23756E-07   -0.12835E-06  1030   0.228E-03
   3 F= -.11763720E+04 E0= -.11763720E+04  d E =-.444362E-03  mag=    -3.0000
