       N       E                     dE             d eps       ncg     rms          rms(c)
DAV:   1     0.484327747635E+04    0.48433E+04   -0.17859E+05  1908   0.928E+02
DAV:   2    -0.809593425761E+02   -0.49242E+04   -0.45234E+04  2592   0.211E+02
DAV:   3    -0.120323159972E+04   -0.11223E+04   -0.11175E+04  2088   0.109E+02
DAV:   4    -0.124900153277E+04   -0.45770E+02   -0.45504E+02  2016   0.298E+01
DAV:   5    -0.125025605342E+04   -0.12545E+01   -0.12504E+01  2340   0.448E+00    0.641E+01
RMM:   6    -0.123559247531E+04    0.14664E+02   -0.82722E+00  1661   0.342E+00    0.527E+01
RMM:   7    -0.119615742405E+04    0.39435E+02   -0.10641E+02  1680   0.118E+01    0.345E+01
RMM:   8    -0.119131435229E+04    0.48431E+01   -0.40854E+00  1767   0.303E+00    0.273E+01
RMM:   9    -0.118533944547E+04    0.59749E+01   -0.13310E+01  1616   0.418E+00    0.185E+01
RMM:  10    -0.118556198898E+04   -0.22254E+00   -0.20739E+01  1585   0.532E+00    0.106E+01
RMM:  11    -0.118376968162E+04    0.17923E+01   -0.13593E+00  1681   0.187E+00    0.630E+00
RMM:  12    -0.118313565592E+04    0.63403E+00   -0.20676E+00  1678   0.154E+00    0.332E+00
RMM:  13    -0.118301400951E+04    0.12165E+00   -0.38930E-01  1717   0.750E-01    0.191E+00
RMM:  14    -0.118300297233E+04    0.11037E-01   -0.75796E-02  1656   0.370E-01    0.197E+00
RMM:  15    -0.118299003729E+04    0.12935E-01   -0.42436E-02  1722   0.226E-01    0.106E+00
RMM:  16    -0.118298779123E+04    0.22461E-02   -0.86057E-03  1698   0.125E-01    0.679E-01
RMM:  17    -0.118298764332E+04    0.14791E-03   -0.54848E-03  1677   0.931E-02    0.434E-01
RMM:  18    -0.118298783409E+04   -0.19076E-03   -0.15669E-03  1584   0.510E-02    0.240E-01
RMM:  19    -0.118298778783E+04    0.46256E-04   -0.11669E-03  1504   0.379E-02    0.132E-01
RMM:  20    -0.118298752049E+04    0.26733E-03   -0.20717E-04  1108   0.228E-02    0.906E-02
RMM:  21    -0.118298738914E+04    0.13135E-03   -0.11872E-04  1071   0.152E-02    0.471E-02
RMM:  22    -0.118298734453E+04    0.44616E-04   -0.67788E-05  1047   0.111E-02
   1 F= -.11901236E+04 E0= -.11901236E+04  d E =-.119012E+04  mag=    -0.0005
       N       E                     dE             d eps       ncg     rms          rms(c)
DAV:   1    -0.118298087389E+04    0.65152E-02   -0.15692E+00  1692   0.191E+00    0.367E-01
RMM:   2    -0.118298702333E+04   -0.61494E-02   -0.73192E-02  1761   0.351E-01    0.398E-01
RMM:   3    -0.118298667242E+04    0.35090E-03   -0.39742E-03  1636   0.976E-02    0.460E-01
RMM:   4    -0.118298667111E+04    0.13189E-05   -0.76451E-04  1278   0.297E-02
   2 F= -.11901236E+04 E0= -.11901236E+04  d E =-.117166E-04  mag=    -0.0001
       N       E                     dE             d eps       ncg     rms          rms(c)
DAV:   1    -0.118298705992E+04   -0.38749E-03   -0.43171E-01  1692   0.101E+00    0.556E-01
RMM:   2    -0.118298913231E+04   -0.20724E-02   -0.19424E-02  1701   0.177E-01    0.399E-01
RMM:   3    -0.118298905119E+04    0.81119E-04   -0.16211E-03  1426   0.622E-02    0.181E-01
RMM:   4    -0.118298906198E+04   -0.10781E-04   -0.44185E-04  1201   0.263E-02
   3 F= -.11901256E+04 E0= -.11901256E+04  d E =-.204123E-02  mag=     0.0000
       N       E                     dE             d eps       ncg     rms          rms(c)
DAV:   1    -0.118298850038E+04    0.55082E-03   -0.92631E-01  1656   0.140E+00    0.296E-01
RMM:   2    -0.118299050956E+04   -0.20092E-02   -0.28538E-02  1710   0.224E-01    0.313E-01
RMM:   3    -0.118299020001E+04    0.30955E-03   -0.14820E-03  1333   0.602E-02    0.342E-01
RMM:   4    -0.118299019407E+04    0.59308E-05   -0.26758E-04  1158   0.208E-02
   4 F= -.11901273E+04 E0= -.11901273E+04  d E =-.174218E-02  mag=     0.0000
       N       E                     dE             d eps       ncg     rms          rms(c)
DAV:   1    -0.118299004772E+04    0.15228E-03   -0.68462E-04  1872   0.552E-02    0.200E-01
RMM:   2    -0.118298999613E+04    0.51591E-04   -0.13761E-04  1069   0.166E-02
   5 F= -.11901272E+04 E0= -.11901272E+04  d E =-.155876E-02  mag=    -0.0000
       N       E                     dE             d eps       ncg     rms          rms(c)
DAV:   1    -0.118299080685E+04   -0.75913E-03   -0.14527E-01  1728   0.527E-01    0.223E-01
RMM:   2    -0.118299075651E+04    0.50340E-04   -0.33160E-03  1580   0.770E-02    0.207E-01
RMM:   3    -0.118299064348E+04    0.11304E-03   -0.26145E-04  1108   0.248E-02    0.175E-01
RMM:   4    -0.118299080284E+04   -0.15937E-03   -0.14495E-03  1584   0.443E-02    0.380E-02
RMM:   5    -0.118299077693E+04    0.25910E-04   -0.28589E-05  1008   0.118E-02
   6 F= -.11901281E+04 E0= -.11901281E+04  d E =-.953160E-03  mag=    -0.0000
       N       E                     dE             d eps       ncg     rms          rms(c)
DAV:   1    -0.118299083084E+04   -0.28003E-04   -0.19100E-02  1800   0.192E-01    0.475E-02
RMM:   2    -0.118299085071E+04   -0.19867E-04   -0.44920E-04  1160   0.295E-02
   7 F= -.11901282E+04 E0= -.11901282E+04  d E =-.108824E-02  mag=    -0.0000
       N       E                     dE             d eps       ncg     rms          rms(c)
DAV:   1    -0.118299214393E+04   -0.13131E-02   -0.46017E-02  1800   0.372E-01    0.783E-02
RMM:   2    -0.118299238146E+04   -0.23754E-03   -0.28273E-03  1648   0.650E-02    0.666E-02
RMM:   3    -0.118299235847E+04    0.22996E-04   -0.14631E-04  1062   0.202E-02
   8 F= -.11901296E+04 E0= -.11901296E+04  d E =-.138315E-02  mag=    -0.0000
       N       E                     dE             d eps       ncg     rms          rms(c)
DAV:   1    -0.118299276087E+04   -0.37941E-03   -0.84071E-02  1800   0.503E-01    0.142E-01
RMM:   2    -0.118299315374E+04   -0.39287E-03   -0.52678E-03  1716   0.871E-02    0.129E-01
RMM:   3    -0.118299307212E+04    0.81623E-04   -0.28899E-04  1106   0.269E-02
   9 F= -.11901302E+04 E0= -.11901302E+04  d E =-.192866E-02  mag=    -0.0000
       N       E                     dE             d eps       ncg     rms          rms(c)
DAV:   1    -0.118299391815E+04   -0.76441E-03   -0.48765E-02  1800   0.375E-01    0.172E-01
RMM:   2    -0.118299416953E+04   -0.25138E-03   -0.35507E-03  1533   0.650E-02    0.156E-01
RMM:   3    -0.118299413104E+04    0.38491E-04   -0.25141E-04  1098   0.234E-02
  10 F= -.11901310E+04 E0= -.11901310E+04  d E =-.859166E-03  mag=     0.0000
       N       E                     dE             d eps       ncg     rms          rms(c)
DAV:   1    -0.118299393138E+04    0.23816E-03   -0.19722E-01  1728   0.759E-01    0.182E-01
RMM:   2    -0.118299521146E+04   -0.12801E-02   -0.14451E-02  1737   0.131E-01    0.163E-01
RMM:   3    -0.118299518718E+04    0.24275E-04   -0.76178E-04  1160   0.408E-02
  11 F= -.11901317E+04 E0= -.11901317E+04  d E =-.151008E-02  mag=     0.0000
       N       E                     dE             d eps       ncg     rms          rms(c)
DAV:   1    -0.118299638787E+04   -0.11764E-02   -0.51172E-02  1800   0.360E-01    0.220E-01
RMM:   2    -0.118299643419E+04   -0.46318E-04   -0.20269E-03  1580   0.575E-02    0.194E-01
RMM:   3    -0.118299637039E+04    0.63794E-04   -0.46443E-04  1287   0.286E-02
  12 F= -.11901327E+04 E0= -.11901327E+04  d E =-.101068E-02  mag=    -0.0000
       N       E                     dE             d eps       ncg     rms          rms(c)
DAV:   1    -0.118299716524E+04   -0.73106E-03   -0.44601E-01  1800   0.107E+00    0.203E-01
RMM:   2    -0.118299842911E+04   -0.12639E-02   -0.17115E-02  1730   0.165E-01    0.174E-01
RMM:   3    -0.118299814954E+04    0.27958E-03   -0.89042E-04  1258   0.484E-02    0.147E-01
RMM:   4    -0.118299798836E+04    0.16117E-03   -0.82948E-04  1568   0.349E-02    0.760E-02
RMM:   5    -0.118299803074E+04   -0.42373E-04   -0.36307E-04  1218   0.257E-02
  13 F= -.11901338E+04 E0= -.11901338E+04  d E =-.216131E-02  mag=     0.0000
       N       E                     dE             d eps       ncg     rms          rms(c)
DAV:   1    -0.118299875246E+04   -0.76409E-03   -0.29455E-02  1872   0.255E-01    0.556E-02
RMM:   2    -0.118299882138E+04   -0.68921E-04   -0.10046E-03  1306   0.395E-02    0.467E-02
RMM:   3    -0.118299881968E+04    0.16947E-05   -0.54031E-05  1026   0.137E-02
  14 F= -.11901345E+04 E0= -.11901345E+04  d E =-.699933E-03  mag=    -0.0000
       N       E                     dE             d eps       ncg     rms          rms(c)
DAV:   1    -0.118300032794E+04   -0.15066E-02   -0.26288E-01  1656   0.764E-01    0.153E-01
RMM:   2    -0.118300097301E+04   -0.64507E-03   -0.89117E-03  1730   0.116E-01    0.129E-01
RMM:   3    -0.118300084927E+04    0.12375E-03   -0.42515E-04  1130   0.325E-02    0.110E-01
RMM:   4    -0.118300081696E+04    0.32303E-04   -0.41984E-04  1270   0.257E-02
  15 F= -.11901363E+04 E0= -.11901363E+04  d E =-.243233E-02  mag=     0.0000
       N       E                     dE             d eps       ncg     rms          rms(c)
DAV:   1    -0.118300136685E+04   -0.51758E-03   -0.97059E-03  1728   0.150E-01    0.385E-02
RMM:   2    -0.118300137585E+04   -0.90034E-05   -0.32356E-04  1116   0.246E-02
  16 F= -.11901369E+04 E0= -.11901369E+04  d E =-.598202E-03  mag=     0.0000
       N       E                     dE             d eps       ncg     rms          rms(c)
DAV:   1    -0.118300174912E+04   -0.38228E-03   -0.85228E-02  1800   0.444E-01    0.106E-01
RMM:   2    -0.118300192145E+04   -0.17233E-03   -0.31075E-03  1666   0.724E-02    0.962E-02
RMM:   3    -0.118300183635E+04    0.85095E-04   -0.14965E-04  1060   0.207E-02
  17 F= -.11901375E+04 E0= -.11901375E+04  d E =-.117798E-02  mag=    -0.0000
       N       E                     dE             d eps       ncg     rms          rms(c)
DAV:   1    -0.118300226804E+04   -0.34659E-03   -0.12302E-02  1800   0.181E-01    0.891E-02
RMM:   2    -0.118300222185E+04    0.46190E-04   -0.41474E-04  1198   0.268E-02
  18 F= -.11901379E+04 E0= -.11901379E+04  d E =-.455794E-03  mag=     0.0000
       N       E                     dE             d eps       ncg     rms          rms(c)
DAV:   1    -0.118300342928E+04   -0.11612E-02   -0.11496E-01  1656   0.546E-01    0.182E-01
RMM:   2    -0.118300333510E+04    0.94180E-04   -0.38914E-03  1706   0.833E-02    0.164E-01
RMM:   3    -0.118300270258E+04    0.63252E-03   -0.56939E-04  1452   0.336E-02    0.122E-01
RMM:   4    -0.118300236992E+04    0.33266E-03   -0.15867E-03  1584   0.453E-02    0.485E-02
RMM:   5    -0.118300236530E+04    0.46163E-05   -0.62560E-05  1034   0.143E-02
  19 F= -.11901383E+04 E0= -.11901383E+04  d E =-.813464E-03  mag=     0.0000
