       N       E                     dE             d eps       ncg     rms          rms(c)
DAV:   1     0.492796692345E+04    0.49280E+04   -0.16896E+05  1800   0.904E+02
DAV:   2    -0.356516675502E+02   -0.49636E+04   -0.45174E+04  2520   0.209E+02
DAV:   3    -0.117130893883E+04   -0.11357E+04   -0.11308E+04  2124   0.111E+02
DAV:   4    -0.121834907322E+04   -0.47040E+02   -0.46825E+02  2052   0.296E+01
DAV:   5    -0.121955074478E+04   -0.12017E+01   -0.11983E+01  2304   0.445E+00    0.596E+01
RMM:   6    -0.120774015562E+04    0.11811E+02   -0.70639E+00  1584   0.328E+00    0.496E+01
RMM:   7    -0.117710077160E+04    0.30639E+02   -0.33608E+01  1584   0.669E+00    0.317E+01
RMM:   8    -0.116114127027E+04    0.15960E+02   -0.21948E+01  1584   0.540E+00    0.230E+01
RMM:   9    -0.115844121046E+04    0.27001E+01   -0.36646E+01  1584   0.684E+00    0.893E+00
RMM:  10    -0.115820962325E+04    0.23159E+00   -0.97742E-01  1628   0.143E+00    0.515E+00
RMM:  11    -0.115768241174E+04    0.52721E+00   -0.80006E-01  1584   0.983E-01    0.261E+00
RMM:  12    -0.115756551714E+04    0.11689E+00   -0.39436E-01  1584   0.760E-01    0.898E-01
RMM:  13    -0.115756644406E+04   -0.92693E-03   -0.83970E-02  1585   0.363E-01    0.497E-01
RMM:  14    -0.115755873610E+04    0.77080E-02   -0.17635E-02  1590   0.166E-01    0.214E-01
RMM:  15    -0.115755873784E+04   -0.17392E-05   -0.27571E-03  1586   0.658E-02    0.117E-01
RMM:  16    -0.115755885760E+04   -0.11976E-03   -0.12283E-03  1487   0.425E-02    0.725E-02
RMM:  17    -0.115755891467E+04   -0.57077E-04   -0.29771E-04  1149   0.254E-02
   1 F= -.11645343E+04 E0= -.11645343E+04  d E =-.116453E+04  mag=    -0.0076
       N       E                     dE             d eps       ncg     rms          rms(c)
DAV:   1    -0.115755619474E+04    0.26629E-02   -0.76808E-01  1800   0.141E+00    0.262E-01
RMM:   2    -0.115755813417E+04   -0.19394E-02   -0.27957E-02  1584   0.230E-01    0.256E-01
RMM:   3    -0.115755773364E+04    0.40053E-03   -0.17649E-03  1679   0.625E-02    0.241E-01
RMM:   4    -0.115755581955E+04    0.19141E-02   -0.58884E-03  1584   0.823E-02    0.944E-02
RMM:   5    -0.115755576028E+04    0.59275E-04   -0.64602E-04  1587   0.307E-02
   2 F= -.11645313E+04 E0= -.11645313E+04  d E =0.293074E-02  mag=    -0.0010
       N       E                     dE             d eps       ncg     rms          rms(c)
DAV:   1    -0.115756041598E+04   -0.45964E-02   -0.33063E-01  1656   0.918E-01    0.156E-01
RMM:   2    -0.115756087958E+04   -0.46361E-03   -0.83768E-03  1584   0.136E-01    0.150E-01
RMM:   3    -0.115756064093E+04    0.23866E-03   -0.47733E-04  1278   0.326E-02    0.136E-01
RMM:   4    -0.115755992634E+04    0.71459E-03   -0.22769E-03  1584   0.522E-02    0.485E-02
RMM:   5    -0.115755991109E+04    0.15250E-04   -0.15246E-04  1060   0.182E-02
   3 F= -.11645353E+04 E0= -.11645353E+04  d E =-.106975E-02  mag=    -0.0003
