       N       E                     dE             d eps       ncg     rms          rms(c)
DAV:   1     0.471906368759E+04    0.47191E+04   -0.17467E+05  1908   0.913E+02
DAV:   2    -0.917813581699E+02   -0.48108E+04   -0.43954E+04  2520   0.206E+02
DAV:   3    -0.118930683023E+04   -0.10975E+04   -0.10929E+04  2160   0.107E+02
DAV:   4    -0.123401231186E+04   -0.44705E+02   -0.44464E+02  2052   0.279E+01
DAV:   5    -0.123531614875E+04   -0.13038E+01   -0.13009E+01  2520   0.408E+00    0.763E+01
RMM:   6    -0.122120851846E+04    0.14108E+02   -0.82915E+00  1587   0.314E+00    0.620E+01
RMM:   7    -0.118992108535E+04    0.31287E+02   -0.37122E+01  1588   0.688E+00    0.430E+01
RMM:   8    -0.117300405688E+04    0.16917E+02   -0.24092E+01  1598   0.554E+00    0.328E+01
RMM:   9    -0.116878622253E+04    0.42178E+01   -0.14502E+01  1599   0.430E+00    0.234E+01
RMM:  10    -0.117132518423E+04   -0.25390E+01   -0.11202E+01  1584   0.383E+00    0.868E+00
RMM:  11    -0.117041016241E+04    0.91502E+00   -0.79315E-01  1598   0.103E+00    0.464E+00
RMM:  12    -0.116990281481E+04    0.50735E+00   -0.18210E+00  1590   0.143E+00    0.264E+00
RMM:  13    -0.116987062728E+04    0.32188E-01   -0.12176E-01  1590   0.378E-01    0.881E-01
RMM:  14    -0.116986728775E+04    0.33395E-02   -0.70453E-02  1604   0.290E-01    0.568E-01
RMM:  15    -0.116986729792E+04   -0.10165E-04   -0.75617E-03  1584   0.100E-01    0.317E-01
RMM:  16    -0.116986704278E+04    0.25514E-03   -0.49523E-03  1596   0.627E-02    0.208E-01
RMM:  17    -0.116986698056E+04    0.62221E-04   -0.20667E-03  1592   0.528E-02    0.128E-01
RMM:  18    -0.116986709035E+04   -0.10979E-03   -0.18992E-04  1073   0.160E-02    0.114E-01
RMM:  19    -0.116986699411E+04    0.96240E-04   -0.24859E-04  1069   0.149E-02
   1 F= -.11769813E+04 E0= -.11769813E+04  d E =-.117698E+04  mag=     1.0030
       N       E                     dE             d eps       ncg     rms          rms(c)
DAV:   1    -0.116986220042E+04    0.48899E-02   -0.23072E+00  1692   0.149E+00    0.241E+00
RMM:   2    -0.116986929220E+04   -0.70918E-02   -0.82681E-02  1591   0.231E-01    0.228E+00
RMM:   3    -0.116986860995E+04    0.68225E-03   -0.59335E-03  1630   0.669E-02    0.155E+00
RMM:   4    -0.116986511679E+04    0.34932E-02   -0.71752E-03  1609   0.700E-02    0.521E-01
RMM:   5    -0.116986829934E+04   -0.31825E-02   -0.75433E-04  1180   0.268E-02    0.246E-01
RMM:   6    -0.116986865764E+04   -0.35830E-03   -0.52530E-04  1135   0.227E-02    0.987E-02
RMM:   7    -0.116986866173E+04   -0.40891E-05   -0.14352E-04  1055   0.114E-02
   2 F= -.11769835E+04 E0= -.11769835E+04  d E =-.216386E-02  mag=     1.0000
       N       E                     dE             d eps       ncg     rms          rms(c)
DAV:   1    -0.116986959970E+04   -0.94206E-03   -0.33177E-01  1620   0.559E-01    0.934E-01
RMM:   2    -0.116987045694E+04   -0.85724E-03   -0.11631E-02  1590   0.844E-02    0.873E-01
RMM:   3    -0.116987034235E+04    0.11459E-03   -0.96921E-04  1147   0.276E-02    0.549E-01
RMM:   4    -0.116986957748E+04    0.76486E-03   -0.93481E-04  1241   0.270E-02    0.196E-01
RMM:   5    -0.116987037899E+04   -0.80150E-03   -0.13606E-04  1050   0.143E-02    0.787E-02
RMM:   6    -0.116987040370E+04   -0.24716E-04   -0.52835E-05  1011   0.780E-03
   3 F= -.11769851E+04 E0= -.11769851E+04  d E =-.371739E-02  mag=     1.0000
       N       E                     dE             d eps       ncg     rms          rms(c)
DAV:   1    -0.116986761274E+04    0.27662E-02   -0.93972E-01  1728   0.124E+00    0.108E+00
RMM:   2    -0.116986939411E+04   -0.17814E-02   -0.24041E-02  1587   0.179E-01    0.955E-01
RMM:   3    -0.116986839182E+04    0.10023E-02   -0.32589E-03  1631   0.634E-02    0.495E-01
RMM:   4    -0.116986755451E+04    0.83731E-03   -0.14264E-03  1573   0.381E-02    0.251E-01
RMM:   5    -0.116986901374E+04   -0.14592E-02   -0.31502E-04  1092   0.204E-02    0.797E-02
RMM:   6    -0.116986899899E+04    0.14749E-04   -0.64992E-05  1026   0.989E-03
   4 F= -.11769842E+04 E0= -.11769842E+04  d E =0.877148E-03  mag=     1.0000
       N       E                     dE             d eps       ncg     rms          rms(c)
DAV:   1    -0.116987064291E+04   -0.16292E-02   -0.33489E-01  1692   0.738E-01    0.649E-01
RMM:   2    -0.116987118360E+04   -0.54069E-03   -0.85016E-03  1586   0.105E-01    0.578E-01
RMM:   3    -0.116987075170E+04    0.43191E-03   -0.11551E-03  1593   0.387E-02    0.302E-01
RMM:   4    -0.116987041341E+04    0.33829E-03   -0.51944E-04  1226   0.238E-02    0.150E-01
RMM:   5    -0.116987102337E+04   -0.60996E-03   -0.10707E-04  1026   0.140E-02    0.542E-02
RMM:   6    -0.116987103152E+04   -0.81462E-05   -0.30083E-05   994   0.681E-03
   5 F= -.11769859E+04 E0= -.11769859E+04  d E =-.837649E-03  mag=     1.0000
