       N       E                     dE             d eps       ncg     rms          rms(c)
DAV:   1     0.504382774363E+04    0.50438E+04   -0.16685E+05  1800   0.902E+02
DAV:   2     0.470808181732E+01   -0.50391E+04   -0.45583E+04  2520   0.214E+02
DAV:   3    -0.117224124711E+04   -0.11769E+04   -0.11693E+04  2124   0.113E+02
DAV:   4    -0.122506838351E+04   -0.52827E+02   -0.52484E+02  2016   0.325E+01
DAV:   5    -0.122735688736E+04   -0.22885E+01   -0.22830E+01  2592   0.653E+00    0.592E+01
RMM:   6    -0.121442642553E+04    0.12930E+02   -0.57858E+00  1771   0.317E+00    0.482E+01
RMM:   7    -0.117434564283E+04    0.40081E+02   -0.53678E+01  1938   0.947E+00    0.287E+01
RMM:   8    -0.116435375841E+04    0.99919E+01   -0.24593E+01  1988   0.833E+00    0.172E+01
RMM:   9    -0.116400233008E+04    0.35143E+00   -0.20333E+01  1987   0.685E+00    0.964E+00
RMM:  10    -0.116367805034E+04    0.32428E+00   -0.14720E+00  1956   0.339E+00    0.634E+00
RMM:  11    -0.116337576613E+04    0.30228E+00   -0.10476E+00  1986   0.165E+00    0.288E+00
RMM:  12    -0.116324162953E+04    0.13414E+00   -0.46694E-01  2054   0.984E-01    0.112E+00
RMM:  13    -0.116323884347E+04    0.27861E-02   -0.48258E-02  2052   0.322E-01    0.801E-01
RMM:  14    -0.116324108930E+04   -0.22458E-02   -0.32866E-02  2053   0.199E-01    0.389E-01
RMM:  15    -0.116324285715E+04   -0.17679E-02   -0.84184E-03  1970   0.976E-02    0.293E-01
RMM:  16    -0.116324498372E+04   -0.21266E-02   -0.66531E-03  1941   0.953E-02    0.164E-01
RMM:  17    -0.116324565797E+04   -0.67425E-03   -0.20863E-03  1772   0.576E-02    0.114E-01
RMM:  18    -0.116324596255E+04   -0.30458E-03   -0.12053E-03  1519   0.516E-02    0.684E-02
RMM:  19    -0.116324597599E+04   -0.13440E-04   -0.32951E-04  1177   0.345E-02
   1 F= -.11708798E+04 E0= -.11708798E+04  d E =-.117088E+04  mag=     0.0021
       N       E                     dE             d eps       ncg     rms          rms(c)
DAV:   1    -0.116324505440E+04    0.90815E-03   -0.21634E-01  1836   0.771E-01    0.149E-01
RMM:   2    -0.116324558804E+04   -0.53365E-03   -0.84443E-03  1987   0.131E-01    0.134E-01
RMM:   3    -0.116324540593E+04    0.18212E-03   -0.50118E-04  1336   0.566E-02    0.116E-01
RMM:   4    -0.116324502566E+04    0.38027E-03   -0.18478E-03  1969   0.646E-02    0.439E-02
RMM:   5    -0.116324500707E+04    0.18593E-04   -0.97272E-05  1078   0.288E-02
   2 F= -.11708794E+04 E0= -.11708794E+04  d E =0.431965E-03  mag=     0.0001
       N       E                     dE             d eps       ncg     rms          rms(c)
DAV:   1    -0.116324637397E+04   -0.13483E-02   -0.75807E-02  1908   0.452E-01    0.857E-02
RMM:   2    -0.116324642845E+04   -0.54480E-04   -0.19155E-03  1737   0.720E-02    0.758E-02
RMM:   3    -0.116324634848E+04    0.79967E-04   -0.19721E-04  1078   0.583E-02
   3 F= -.11708804E+04 E0= -.11708804E+04  d E =-.595878E-03  mag=    -0.0000
