       N       E                     dE             d eps       ncg     rms          rms(c)
DAV:   1     0.520077536407E+04    0.52008E+04   -0.17527E+05  1800   0.930E+02
DAV:   2     0.182283565209E+02   -0.51825E+04   -0.47512E+04  2520   0.217E+02
DAV:   3    -0.118234027041E+04   -0.12006E+04   -0.11938E+04  2088   0.117E+02
DAV:   4    -0.124375089689E+04   -0.61411E+02   -0.61059E+02  2052   0.358E+01
DAV:   5    -0.124627774491E+04   -0.25268E+01   -0.25194E+01  2412   0.674E+00    0.617E+01
RMM:   6    -0.123361680813E+04    0.12661E+02   -0.72582E+00  1717   0.339E+00    0.503E+01
RMM:   7    -0.119195658208E+04    0.41660E+02   -0.65942E+01  1862   0.106E+01    0.292E+01
RMM:   8    -0.118132403615E+04    0.10633E+02   -0.34106E+01  1844   0.106E+01    0.155E+01
RMM:   9    -0.118213889809E+04   -0.81486E+00   -0.15685E+01  1801   0.744E+00    0.958E+00
RMM:  10    -0.118218271320E+04   -0.43815E-01   -0.24828E+00  1916   0.382E+00    0.698E+00
RMM:  11    -0.118149828390E+04    0.68443E+00   -0.23570E+00  1753   0.192E+00    0.270E+00
RMM:  12    -0.118149749389E+04    0.79001E-03   -0.31009E-01  1745   0.204E+00    0.152E+00
RMM:  13    -0.118144971469E+04    0.47779E-01   -0.14628E-01  1955   0.504E-01    0.835E-01
RMM:  14    -0.118144242429E+04    0.72904E-02   -0.52777E-02  1772   0.378E-01    0.495E-01
RMM:  15    -0.118144185675E+04    0.56754E-03   -0.94059E-03  1794   0.277E-01    0.397E-01
RMM:  16    -0.118144223714E+04   -0.38039E-03   -0.49356E-03  1851   0.101E-01    0.287E-01
RMM:  17    -0.118144225675E+04   -0.19614E-04   -0.10120E-03  1600   0.786E-02    0.166E-01
RMM:  18    -0.118144236396E+04   -0.10721E-03   -0.45165E-04  1360   0.632E-02    0.682E-02
RMM:  19    -0.118144238469E+04   -0.20725E-04   -0.34136E-04  1317   0.463E-02
   1 F= -.11885412E+04 E0= -.11885357E+04  d E =-.118854E+04  mag=    -0.8308
       N       E                     dE             d eps       ncg     rms          rms(c)
DAV:   1    -0.118144278822E+04   -0.42425E-03   -0.24742E-01  1764   0.847E-01    0.168E-01
RMM:   2    -0.118144323883E+04   -0.45062E-03   -0.88142E-03  1764   0.128E-01    0.149E-01
RMM:   3    -0.118144292484E+04    0.31399E-03   -0.90564E-04  1440   0.107E-01    0.123E-01
RMM:   4    -0.118144252180E+04    0.40305E-03   -0.11887E-03  1651   0.510E-02    0.594E-02
RMM:   5    -0.118144251202E+04    0.97831E-05   -0.29024E-04  1193   0.690E-02
   2 F= -.11885414E+04 E0= -.11885359E+04  d E =-.209447E-03  mag=    -0.8313
       N       E                     dE             d eps       ncg     rms          rms(c)
DAV:   1    -0.118144303804E+04   -0.51624E-03   -0.38084E-02  1800   0.328E-01    0.647E-02
RMM:   2    -0.118144306962E+04   -0.31575E-04   -0.10883E-03  1446   0.488E-02    0.555E-02
RMM:   3    -0.118144300175E+04    0.67873E-04   -0.13994E-04  1023   0.453E-02
   3 F= -.11885419E+04 E0= -.11885364E+04  d E =-.667399E-03  mag=    -0.8318
