       N       E                     dE             d eps       ncg     rms          rms(c)
DAV:   1     0.468779206520E+04    0.46878E+04   -0.17632E+05  1908   0.916E+02
DAV:   2    -0.109047470832E+03   -0.47968E+04   -0.43754E+04  2592   0.208E+02
DAV:   3    -0.119835559538E+04   -0.10893E+04   -0.10848E+04  2124   0.107E+02
DAV:   4    -0.124338171434E+04   -0.45026E+02   -0.44789E+02  2088   0.281E+01
DAV:   5    -0.124475126469E+04   -0.13696E+01   -0.13663E+01  2484   0.425E+00    0.638E+01
RMM:   6    -0.123121795577E+04    0.13533E+02   -0.82280E+00  1586   0.319E+00    0.520E+01
RMM:   7    -0.118808548787E+04    0.43132E+02   -0.77229E+01  1584   0.962E+00    0.291E+01
RMM:   8    -0.117844913079E+04    0.96364E+01   -0.36990E+01  1588   0.689E+00    0.140E+01
RMM:   9    -0.117958771330E+04   -0.11386E+01   -0.12052E+01  1588   0.396E+00    0.924E+00
RMM:  10    -0.117851845533E+04    0.10693E+01   -0.41141E+00  1584   0.212E+00    0.423E+00
RMM:  11    -0.117829842490E+04    0.22003E+00   -0.19689E-01  1601   0.510E-01    0.221E+00
RMM:  12    -0.117821662470E+04    0.81800E-01   -0.20074E-01  1586   0.446E-01    0.101E+00
RMM:  13    -0.117819939069E+04    0.17234E-01   -0.86550E-02  1641   0.281E-01    0.262E-01
RMM:  14    -0.117819808126E+04    0.13094E-02   -0.14465E-02  1674   0.117E-01    0.235E-01
RMM:  15    -0.117819753157E+04    0.54969E-03   -0.28011E-03  1629   0.545E-02    0.130E-01
RMM:  16    -0.117819781873E+04   -0.28716E-03   -0.10936E-03  1584   0.363E-02    0.693E-02
RMM:  17    -0.117819780968E+04    0.90450E-05   -0.19012E-04  1112   0.151E-02
   1 F= -.11853458E+04 E0= -.11853458E+04  d E =-.118535E+04  mag=     0.0034
       N       E                     dE             d eps       ncg     rms          rms(c)
DAV:   1    -0.117819115028E+04    0.66684E-02   -0.48945E+00  1584   0.237E+00    0.108E+00
RMM:   2    -0.117819980883E+04   -0.86585E-02   -0.12247E-01  1620   0.325E-01    0.101E+00
RMM:   3    -0.117819616233E+04    0.36465E-02   -0.56632E-03  1665   0.657E-02    0.899E-01
RMM:   4    -0.117819560236E+04    0.55997E-03   -0.16081E-02  1588   0.104E-01    0.357E-01
RMM:   5    -0.117819496994E+04    0.63242E-03   -0.14826E-03  1228   0.318E-02    0.123E-01
RMM:   6    -0.117819452074E+04    0.44920E-03   -0.14379E-03  1308   0.271E-02    0.662E-02
RMM:   7    -0.117819444349E+04    0.77252E-04   -0.53364E-04  1112   0.188E-02
   2 F= -.11853440E+04 E0= -.11853440E+04  d E =0.183689E-02  mag=    -0.0000
       N       E                     dE             d eps       ncg     rms          rms(c)
DAV:   1    -0.117820204916E+04   -0.75284E-02   -0.13272E+00  1656   0.126E+00    0.556E-01
RMM:   2    -0.117820420921E+04   -0.21601E-02   -0.31385E-02  1602   0.171E-01    0.533E-01
RMM:   3    -0.117820318263E+04    0.10266E-02   -0.13335E-03  1275   0.326E-02    0.474E-01
RMM:   4    -0.117820300628E+04    0.17635E-03   -0.40889E-03  1545   0.505E-02    0.188E-01
RMM:   5    -0.117820285041E+04    0.15586E-03   -0.48652E-04  1106   0.174E-02    0.557E-02
RMM:   6    -0.117820276202E+04    0.88391E-04   -0.26659E-04  1069   0.119E-02
   3 F= -.11853515E+04 E0= -.11853515E+04  d E =-.567587E-02  mag=     0.0000
       N       E                     dE             d eps       ncg     rms          rms(c)
DAV:   1    -0.117820323785E+04   -0.38744E-03   -0.22015E+00  1584   0.171E+00    0.606E-01
RMM:   2    -0.117820611647E+04   -0.28786E-02   -0.39219E-02  1594   0.211E-01    0.564E-01
RMM:   3    -0.117820480517E+04    0.13113E-02   -0.17714E-03  1525   0.460E-02    0.471E-01
RMM:   4    -0.117820505097E+04   -0.24580E-03   -0.10766E-02  1584   0.911E-02    0.157E-01
RMM:   5    -0.117820435430E+04    0.69666E-03   -0.49003E-04  1166   0.209E-02    0.963E-02
RMM:   6    -0.117820426253E+04    0.91776E-04   -0.12198E-03  1336   0.264E-02    0.368E-02
RMM:   7    -0.117820424434E+04    0.18182E-04   -0.13672E-04  1053   0.109E-02
   4 F= -.11853541E+04 E0= -.11853541E+04  d E =-.257152E-02  mag=    -0.0000
       N       E                     dE             d eps       ncg     rms          rms(c)
DAV:   1    -0.117820590924E+04   -0.16467E-02   -0.31639E-01  1728   0.661E-01    0.235E-01
RMM:   2    -0.117820629626E+04   -0.38702E-03   -0.57258E-03  1559   0.806E-02    0.215E-01
RMM:   3    -0.117820605795E+04    0.23832E-03   -0.31983E-04  1127   0.197E-02    0.169E-01
RMM:   4    -0.117820612664E+04   -0.68690E-04   -0.14559E-03  1398   0.331E-02    0.652E-02
RMM:   5    -0.117820600609E+04    0.12055E-03   -0.26542E-04  1068   0.140E-02    0.269E-02
RMM:   6    -0.117820601381E+04   -0.77209E-05   -0.26341E-05   952   0.593E-03
   5 F= -.11853554E+04 E0= -.11853554E+04  d E =-.393044E-02  mag=     0.0000
       N       E                     dE             d eps       ncg     rms          rms(c)
DAV:   1    -0.117820791877E+04   -0.19127E-02   -0.66344E-01  1728   0.114E+00    0.222E-01
RMM:   2    -0.117820876590E+04   -0.84713E-03   -0.13538E-02  1586   0.156E-01    0.196E-01
RMM:   3    -0.117820832190E+04    0.44400E-03   -0.64453E-04  1273   0.311E-02    0.166E-01
RMM:   4    -0.117820799910E+04    0.32280E-03   -0.27024E-03  1590   0.533E-02    0.653E-02
RMM:   5    -0.117820793957E+04    0.59530E-04   -0.88632E-05  1056   0.123E-02
   6 F= -.11853577E+04 E0= -.11853577E+04  d E =-.230037E-02  mag=     0.0000
       N       E                     dE             d eps       ncg     rms          rms(c)
DAV:   1    -0.117820796512E+04    0.33980E-04   -0.59080E-04  1728   0.362E-02    0.270E-02
RMM:   2    -0.117820795957E+04    0.55494E-05   -0.31856E-05   979   0.864E-03
   7 F= -.11853577E+04 E0= -.11853577E+04  d E =-.231018E-02  mag=    -0.0000
       N       E                     dE             d eps       ncg     rms          rms(c)
DAV:   1    -0.117820898813E+04   -0.10230E-02   -0.51109E-01  1728   0.103E+00    0.195E-01
RMM:   2    -0.117820971320E+04   -0.72508E-03   -0.10055E-02  1584   0.138E-01    0.176E-01
RMM:   3    -0.117820955413E+04    0.15908E-03   -0.48231E-04  1234   0.273E-02    0.154E-01
RMM:   4    -0.117820963265E+04   -0.78522E-04   -0.16903E-03  1538   0.418E-02    0.639E-02
RMM:   5    -0.117820953719E+04    0.95456E-04   -0.73428E-05  1048   0.107E-02
   8 F= -.11853593E+04 E0= -.11853593E+04  d E =-.158591E-02  mag=    -0.0000
       N       E                     dE             d eps       ncg     rms          rms(c)
DAV:   1    -0.117820953449E+04    0.98160E-04   -0.54385E-04  1656   0.354E-02    0.151E-02
RMM:   2    -0.117820953670E+04   -0.22077E-05   -0.22403E-05   980   0.740E-03
   9 F= -.11853593E+04 E0= -.11853593E+04  d E =-.158507E-02  mag=     0.0000
       N       E                     dE             d eps       ncg     rms          rms(c)
DAV:   1    -0.117821059578E+04   -0.10613E-02   -0.23776E-01  1728   0.736E-01    0.115E-01
RMM:   2    -0.117821089948E+04   -0.30370E-03   -0.44877E-03  1586   0.953E-02    0.106E-01
RMM:   3    -0.117821083274E+04    0.66736E-04   -0.20868E-04  1128   0.200E-02
  10 F= -.11853605E+04 E0= -.11853605E+04  d E =-.122076E-02  mag=    -0.0000
       N       E                     dE             d eps       ncg     rms          rms(c)
DAV:   1    -0.117821055760E+04    0.34187E-03   -0.26257E-01  1656   0.777E-01    0.140E-01
RMM:   2    -0.117821083796E+04   -0.28036E-03   -0.43115E-03  1588   0.921E-02    0.126E-01
RMM:   3    -0.117821079826E+04    0.39700E-04   -0.22483E-04  1140   0.205E-02
  11 F= -.11853604E+04 E0= -.11853604E+04  d E =-.110953E-02  mag=     0.0000
       N       E                     dE             d eps       ncg     rms          rms(c)
DAV:   1    -0.117821075272E+04    0.85240E-04   -0.30901E-01  1692   0.900E-01    0.161E-01
RMM:   2    -0.117821143240E+04   -0.67968E-03   -0.92811E-03  1588   0.139E-01    0.145E-01
RMM:   3    -0.117821124919E+04    0.18321E-03   -0.40809E-04  1214   0.262E-02    0.127E-01
RMM:   4    -0.117821104920E+04    0.19999E-03   -0.14273E-03  1560   0.399E-02    0.616E-02
RMM:   5    -0.117821101799E+04    0.31208E-04   -0.47976E-05  1012   0.100E-02
  12 F= -.11853607E+04 E0= -.11853607E+04  d E =-.286081E-03  mag=     0.0000
       N       E                     dE             d eps       ncg     rms          rms(c)
DAV:   1    -0.117821194555E+04   -0.89635E-03   -0.68587E-02  1800   0.424E-01    0.724E-02
RMM:   2    -0.117821210226E+04   -0.15671E-03   -0.20939E-03  1586   0.643E-02    0.669E-02
RMM:   3    -0.117821206409E+04    0.38168E-04   -0.75821E-05   998   0.122E-02
  13 F= -.11853617E+04 E0= -.11853617E+04  d E =-.129990E-02  mag=    -0.0000
