       N       E                     dE             d eps       ncg     rms          rms(c)
DAV:   1     0.480596887754E+04    0.48060E+04   -0.17828E+05  1908   0.929E+02
DAV:   2    -0.824492948598E+02   -0.48884E+04   -0.44892E+04  2556   0.209E+02
DAV:   3    -0.119877258633E+04   -0.11163E+04   -0.11116E+04  2196   0.108E+02
DAV:   4    -0.124351609564E+04   -0.44744E+02   -0.44477E+02  2052   0.276E+01
DAV:   5    -0.124478163880E+04   -0.12655E+01   -0.12624E+01  2412   0.399E+00    0.711E+01
RMM:   6    -0.123250962634E+04    0.12272E+02   -0.74078E+00  1588   0.311E+00    0.604E+01
RMM:   7    -0.118864758893E+04    0.43862E+02   -0.73995E+01  1587   0.972E+00    0.388E+01
RMM:   8    -0.118181213754E+04    0.68355E+01   -0.74062E+01  1588   0.966E+00    0.147E+01
RMM:   9    -0.118333783790E+04   -0.15257E+01   -0.49356E+00  1631   0.264E+00    0.105E+01
RMM:  10    -0.118043689885E+04    0.29009E+01   -0.96003E+00  1584   0.330E+00    0.387E+00
RMM:  11    -0.118039815201E+04    0.38747E-01   -0.27598E-01  1589   0.582E-01    0.248E+00
RMM:  12    -0.118030350826E+04    0.94644E-01   -0.52687E-01  1584   0.799E-01    0.869E-01
RMM:  13    -0.118029504914E+04    0.84591E-02   -0.28714E-02  1605   0.198E-01    0.609E-01
RMM:  14    -0.118028940878E+04    0.56404E-02   -0.13597E-02  1608   0.119E-01    0.266E-01
RMM:  15    -0.118028889226E+04    0.51651E-03   -0.30124E-03  1675   0.490E-02    0.230E-01
RMM:  16    -0.118028873600E+04    0.15626E-03   -0.16104E-03  1629   0.402E-02    0.145E-01
RMM:  17    -0.118028894081E+04   -0.20481E-03   -0.40457E-04  1261   0.243E-02    0.531E-02
RMM:  18    -0.118028899910E+04   -0.58290E-04   -0.15377E-04  1057   0.148E-02
   1 F= -.11874572E+04 E0= -.11874572E+04  d E =-.118746E+04  mag=     0.0001
       N       E                     dE             d eps       ncg     rms          rms(c)
DAV:   1    -0.118028886145E+04    0.79368E-04   -0.61126E-01  1620   0.108E+00    0.455E-01
RMM:   2    -0.118028998354E+04   -0.11221E-02   -0.17572E-02  1616   0.156E-01    0.464E-01
RMM:   3    -0.118028978009E+04    0.20345E-03   -0.87223E-04  1346   0.326E-02    0.460E-01
RMM:   4    -0.118028949178E+04    0.28831E-03   -0.12644E-03  1555   0.379E-02    0.246E-01
RMM:   5    -0.118029005055E+04   -0.55878E-03   -0.21825E-03  1588   0.486E-02    0.165E-01
RMM:   6    -0.118028974455E+04    0.30600E-03   -0.46182E-04  1202   0.198E-02    0.664E-02
RMM:   7    -0.118028970845E+04    0.36100E-04   -0.22478E-04  1082   0.153E-02
   2 F= -.11874582E+04 E0= -.11874582E+04  d E =-.975762E-03  mag=     0.0000
       N       E                     dE             d eps       ncg     rms          rms(c)
DAV:   1    -0.118029010676E+04   -0.36221E-03   -0.86432E-02  1692   0.400E-01    0.173E-01
RMM:   2    -0.118029019128E+04   -0.84520E-04   -0.23659E-03  1573   0.570E-02    0.176E-01
RMM:   3    -0.118029014028E+04    0.51003E-04   -0.96633E-05  1029   0.116E-02
   3 F= -.11874585E+04 E0= -.11874585E+04  d E =-.130641E-02  mag=    -0.0000
       N       E                     dE             d eps       ncg     rms          rms(c)
DAV:   1    -0.118029068094E+04   -0.48965E-03   -0.18055E-01  1728   0.524E-01    0.205E-01
RMM:   2    -0.118029097319E+04   -0.29225E-03   -0.44314E-03  1591   0.720E-02    0.212E-01
RMM:   3    -0.118029086808E+04    0.10511E-03   -0.16484E-04  1061   0.145E-02    0.210E-01
RMM:   4    -0.118029083923E+04    0.28846E-04   -0.20404E-04  1059   0.144E-02
   4 F= -.11874595E+04 E0= -.11874595E+04  d E =-.971411E-03  mag=     0.0000
       N       E                     dE             d eps       ncg     rms          rms(c)
DAV:   1    -0.118028935469E+04    0.15134E-02   -0.74379E-01  1728   0.106E+00    0.534E-01
RMM:   2    -0.118029020630E+04   -0.85161E-03   -0.16250E-02  1584   0.133E-01    0.512E-01
RMM:   3    -0.118028992616E+04    0.28015E-03   -0.66429E-04  1249   0.275E-02    0.467E-01
RMM:   4    -0.118029056098E+04   -0.63483E-03   -0.14153E-03  1548   0.419E-02    0.644E-02
RMM:   5    -0.118029053215E+04    0.28832E-04   -0.44181E-05  1022   0.839E-03
   5 F= -.11874598E+04 E0= -.11874598E+04  d E =-.123956E-02  mag=     0.0000
       N       E                     dE             d eps       ncg     rms          rms(c)
DAV:   1    -0.118029164599E+04   -0.10850E-02   -0.15287E-01  1728   0.627E-01    0.202E-01
RMM:   2    -0.118029194595E+04   -0.29995E-03   -0.42961E-03  1594   0.925E-02    0.202E-01
RMM:   3    -0.118029189397E+04    0.51977E-04   -0.16773E-04  1080   0.177E-02
   6 F= -.11874610E+04 E0= -.11874610E+04  d E =-.124648E-02  mag=    -0.0000
       N       E                     dE             d eps       ncg     rms          rms(c)
DAV:   1    -0.118029172732E+04    0.21862E-03   -0.16662E-03  1728   0.704E-02    0.569E-02
RMM:   2    -0.118029173664E+04   -0.93149E-05   -0.17832E-04  1037   0.211E-02
   7 F= -.11874609E+04 E0= -.11874609E+04  d E =-.109479E-02  mag=     0.0000
       N       E                     dE             d eps       ncg     rms          rms(c)
DAV:   1    -0.118029206672E+04   -0.33940E-03   -0.85737E-02  1728   0.482E-01    0.130E-01
RMM:   2    -0.118029223425E+04   -0.16753E-03   -0.23866E-03  1596   0.711E-02    0.125E-01
RMM:   3    -0.118029219827E+04    0.35978E-04   -0.87198E-05  1004   0.142E-02
   8 F= -.11874613E+04 E0= -.11874613E+04  d E =-.451239E-03  mag=    -0.0000
       N       E                     dE             d eps       ncg     rms          rms(c)
DAV:   1    -0.118029233509E+04   -0.10084E-03   -0.91329E-03  1764   0.159E-01    0.418E-02
RMM:   2    -0.118029234339E+04   -0.82960E-05   -0.40638E-04  1180   0.306E-02
   9 F= -.11874614E+04 E0= -.11874614E+04  d E =-.599116E-03  mag=    -0.0000
