       N       E                     dE             d eps       ncg     rms          rms(c)
DAV:   1     0.501345932815E+04    0.50135E+04   -0.17516E+05  1872   0.929E+02
DAV:   2    -0.333396220558E+02   -0.50468E+04   -0.46250E+04  2592   0.211E+02
DAV:   3    -0.118918539449E+04   -0.11558E+04   -0.11501E+04  2088   0.111E+02
DAV:   4    -0.123658184207E+04   -0.47396E+02   -0.47112E+02  2016   0.295E+01
DAV:   5    -0.123775122462E+04   -0.11694E+01   -0.11660E+01  2304   0.416E+00    0.645E+01
RMM:   6    -0.122119572022E+04    0.16556E+02   -0.20299E+01  1584   0.473E+00    0.515E+01
RMM:   7    -0.120331999339E+04    0.17876E+02   -0.12851E+01  1584   0.417E+00    0.406E+01
RMM:   8    -0.118221494810E+04    0.21105E+02   -0.22468E+01  1584   0.553E+00    0.277E+01
RMM:   9    -0.117216429339E+04    0.10051E+02   -0.18990E+01  1584   0.504E+00    0.191E+01
RMM:  10    -0.117185227459E+04    0.31202E+00   -0.12440E+01  1584   0.407E+00    0.101E+01
RMM:  11    -0.117243787284E+04   -0.58560E+00   -0.13741E+00  1600   0.144E+00    0.713E+00
RMM:  12    -0.117179628764E+04    0.64159E+00   -0.27619E+00  1584   0.178E+00    0.381E+00
RMM:  13    -0.117169697302E+04    0.99315E-01   -0.13714E-01  1598   0.374E-01    0.108E+00
RMM:  14    -0.117169480711E+04    0.21659E-02   -0.29510E-02  1589   0.180E-01    0.927E-01
RMM:  15    -0.117169018794E+04    0.46192E-02   -0.22553E-02  1584   0.168E-01    0.444E-01
RMM:  16    -0.117168915397E+04    0.10340E-02   -0.63365E-03  1611   0.923E-02    0.273E-01
RMM:  17    -0.117168946353E+04   -0.30956E-03   -0.27164E-03  1585   0.533E-02    0.114E-01
RMM:  18    -0.117168949254E+04   -0.29011E-04   -0.64129E-04  1222   0.266E-02
   1 F= -.11788763E+04 E0= -.11788763E+04  d E =-.117888E+04  mag=     1.0020
       N       E                     dE             d eps       ncg     rms          rms(c)
DAV:   1    -0.117168338048E+04    0.60831E-02   -0.24870E+00  1692   0.235E+00    0.588E-01
RMM:   2    -0.117168810118E+04   -0.47207E-02   -0.57524E-02  1585   0.324E-01    0.525E-01
RMM:   3    -0.117168780207E+04    0.29911E-03   -0.35224E-03  1646   0.669E-02    0.471E-01
RMM:   4    -0.117168649606E+04    0.13060E-02   -0.47487E-03  1585   0.813E-02    0.220E-01
RMM:   5    -0.117168664707E+04   -0.15101E-03   -0.15887E-03  1584   0.468E-02    0.108E-01
RMM:   6    -0.117168651888E+04    0.12819E-03   -0.91926E-05  1029   0.129E-02    0.784E-02
RMM:   7    -0.117168644684E+04    0.72043E-04   -0.50047E-04  1400   0.233E-02
   2 F= -.11788741E+04 E0= -.11788741E+04  d E =0.221147E-02  mag=     1.0000
       N       E                     dE             d eps       ncg     rms          rms(c)
DAV:   1    -0.117169184194E+04   -0.53231E-02   -0.77800E-01  1764   0.131E+00    0.329E-01
RMM:   2    -0.117169305912E+04   -0.12172E-02   -0.16508E-02  1588   0.178E-01    0.297E-01
RMM:   3    -0.117169290588E+04    0.15324E-03   -0.87993E-04  1338   0.350E-02    0.266E-01
RMM:   4    -0.117169240153E+04    0.50436E-03   -0.18893E-03  1580   0.513E-02    0.121E-01
RMM:   5    -0.117169244470E+04   -0.43175E-04   -0.51742E-04  1398   0.271E-02
   3 F= -.11788796E+04 E0= -.11788796E+04  d E =-.332472E-02  mag=     1.0000
       N       E                     dE             d eps       ncg     rms          rms(c)
DAV:   1    -0.117169453218E+04   -0.21306E-02   -0.74162E-01  1656   0.132E+00    0.404E-01
RMM:   2    -0.117169455144E+04   -0.19261E-04   -0.14636E-02  1584   0.179E-01    0.270E-01
RMM:   3    -0.117169418990E+04    0.36154E-03   -0.88138E-04  1407   0.383E-02    0.236E-01
RMM:   4    -0.117169312225E+04    0.10676E-02   -0.32165E-03  1584   0.620E-02    0.115E-01
RMM:   5    -0.117169309413E+04    0.28122E-04   -0.58573E-04  1546   0.279E-02
   4 F= -.11788802E+04 E0= -.11788802E+04  d E =-.550790E-03  mag=     1.0000
       N       E                     dE             d eps       ncg     rms          rms(c)
DAV:   1    -0.117169412251E+04   -0.10003E-02   -0.13224E-01  1728   0.557E-01    0.164E-01
RMM:   2    -0.117169403465E+04    0.87854E-04   -0.23956E-03  1584   0.726E-02    0.109E-01
RMM:   3    -0.117169396858E+04    0.66076E-04   -0.13162E-04  1021   0.161E-02
   5 F= -.11788811E+04 E0= -.11788811E+04  d E =-.146758E-02  mag=     1.0000
       N       E                     dE             d eps       ncg     rms          rms(c)
DAV:   1    -0.117169421554E+04   -0.18089E-03   -0.28747E-01  1728   0.853E-01    0.287E-01
RMM:   2    -0.117169389258E+04    0.32296E-03   -0.63593E-03  1584   0.121E-01    0.198E-01
RMM:   3    -0.117169362148E+04    0.27110E-03   -0.30099E-04  1165   0.248E-02    0.178E-01
RMM:   4    -0.117169263327E+04    0.98821E-03   -0.40930E-03  1584   0.700E-02    0.797E-02
RMM:   5    -0.117169265569E+04   -0.22428E-04   -0.13398E-04  1049   0.166E-02
   6 F= -.11788799E+04 E0= -.11788799E+04  d E =0.118853E-02  mag=     1.0000
       N       E                     dE             d eps       ncg     rms          rms(c)
DAV:   1    -0.117169460255E+04   -0.19693E-02   -0.14259E-01  1728   0.598E-01    0.175E-01
RMM:   2    -0.117169446464E+04    0.13791E-03   -0.28988E-03  1584   0.816E-02    0.112E-01
RMM:   3    -0.117169435433E+04    0.11032E-03   -0.12471E-04  1027   0.167E-02    0.100E-01
RMM:   4    -0.117169399670E+04    0.35762E-03   -0.15538E-03  1584   0.428E-02    0.468E-02
RMM:   5    -0.117169401582E+04   -0.19115E-04   -0.52104E-05   995   0.106E-02
   7 F= -.11788812E+04 E0= -.11788812E+04  d E =-.831734E-04  mag=     1.0000
