       N       E                     dE             d eps       ncg     rms          rms(c)
DAV:   1     0.488344466928E+04    0.48834E+04   -0.16860E+05  1836   0.900E+02
DAV:   2    -0.573699686510E+02   -0.49408E+04   -0.44802E+04  2520   0.208E+02
DAV:   3    -0.118697607207E+04   -0.11296E+04   -0.11234E+04  2124   0.110E+02
DAV:   4    -0.123337771358E+04   -0.46402E+02   -0.46088E+02  2088   0.299E+01
DAV:   5    -0.123467169131E+04   -0.12940E+01   -0.12903E+01  2268   0.465E+00    0.682E+01
RMM:   6    -0.122052681238E+04    0.14145E+02   -0.24925E+01  1601   0.541E+00    0.528E+01
RMM:   7    -0.120201333568E+04    0.18513E+02   -0.10968E+01  1584   0.401E+00    0.417E+01
RMM:   8    -0.117428180640E+04    0.27732E+02   -0.49514E+01  1585   0.818E+00    0.261E+01
RMM:   9    -0.117022422244E+04    0.40576E+01   -0.28027E+01  1584   0.635E+00    0.154E+01
RMM:  10    -0.117245003496E+04   -0.22258E+01   -0.69361E+00  1607   0.353E+00    0.113E+01
RMM:  11    -0.116971324626E+04    0.27368E+01   -0.28038E+00  1684   0.180E+00    0.666E+00
RMM:  12    -0.116934459256E+04    0.36865E+00   -0.66202E-01  1628   0.917E-01    0.576E+00
RMM:  13    -0.116902873771E+04    0.31585E+00   -0.80393E-01  1586   0.101E+00    0.264E+00
RMM:  14    -0.116894596148E+04    0.82776E-01   -0.30081E-01  1584   0.728E-01    0.111E+00
RMM:  15    -0.116895083430E+04   -0.48728E-02   -0.57512E-02  1655   0.340E-01    0.790E-01
RMM:  16    -0.116894991289E+04    0.92141E-03   -0.79730E-03  1723   0.127E-01    0.631E-01
RMM:  17    -0.116894924910E+04    0.66379E-03   -0.16832E-03  1549   0.570E-02    0.435E-01
RMM:  18    -0.116894893321E+04    0.31589E-03   -0.31784E-03  1623   0.658E-02    0.120E-01
RMM:  19    -0.116894891377E+04    0.19443E-04   -0.55384E-04  1366   0.296E-02
   1 F= -.11762142E+04 E0= -.11762123E+04  d E =-.117621E+04  mag=    -0.9477
       N       E                     dE             d eps       ncg     rms          rms(c)
DAV:   1    -0.116894808482E+04    0.84839E-03   -0.33553E-01  1728   0.922E-01    0.187E-01
RMM:   2    -0.116894873104E+04   -0.64622E-03   -0.10508E-02  1612   0.153E-01    0.192E-01
RMM:   3    -0.116894866870E+04    0.62339E-04   -0.75725E-04  1455   0.500E-02
   2 F= -.11762144E+04 E0= -.11762125E+04  d E =-.181641E-03  mag=    -0.9514
       N       E                     dE             d eps       ncg     rms          rms(c)
DAV:   1    -0.116894902989E+04   -0.29886E-03   -0.53111E-02  1656   0.366E-01    0.182E-01
RMM:   2    -0.116894913073E+04   -0.10083E-03   -0.15306E-03  1584   0.599E-02    0.138E-01
RMM:   3    -0.116894903905E+04    0.91678E-04   -0.32369E-04  1177   0.273E-02
   3 F= -.11762146E+04 E0= -.11762127E+04  d E =-.382233E-03  mag=    -0.9546
