       N       E                     dE             d eps       ncg     rms          rms(c)
DAV:   1     0.505925079579E+04    0.50593E+04   -0.17026E+05  1728   0.939E+02
DAV:   2     0.282498131924E+01   -0.50564E+04   -0.46104E+04  2400   0.219E+02
DAV:   3    -0.119522144665E+04   -0.11980E+04   -0.11881E+04  2080   0.117E+02
DAV:   4    -0.124691682965E+04   -0.51695E+02   -0.51356E+02  1984   0.320E+01
DAV:   5    -0.124833800892E+04   -0.14212E+01   -0.14172E+01  2368   0.508E+00    0.768E+01
RMM:   6    -0.124214926427E+04    0.61887E+01   -0.90294E+01  1661   0.153E+01    0.870E+01
RMM:   7    -0.121934088650E+04    0.22808E+02   -0.15731E+01  1542   0.649E+00    0.611E+01
RMM:   8    -0.120630580208E+04    0.13035E+02   -0.13362E+01  1564   0.467E+00    0.442E+01
RMM:   9    -0.118300224608E+04    0.23304E+02   -0.19006E+01  1591   0.573E+00    0.297E+01
RMM:  10    -0.117196987793E+04    0.11032E+02   -0.16976E+01  1568   0.555E+00    0.215E+01
RMM:  11    -0.116935263980E+04    0.26172E+01   -0.14838E+01  1577   0.525E+00    0.120E+01
RMM:  12    -0.117018925774E+04   -0.83662E+00   -0.48303E+00  1646   0.328E+00    0.870E+00
RMM:  13    -0.116997511826E+04    0.21414E+00   -0.52282E-01  1636   0.137E+00    0.555E+00
RMM:  14    -0.116979682006E+04    0.17830E+00   -0.24742E-01  1563   0.760E-01    0.314E+00
RMM:  15    -0.116969049969E+04    0.10632E+00   -0.21834E-01  1537   0.621E-01    0.160E+00
RMM:  16    -0.116967817598E+04    0.12324E-01   -0.15549E-01  1544   0.541E-01    0.711E-01
RMM:  17    -0.116967937511E+04   -0.11991E-02   -0.21929E-02  1762   0.270E-01    0.429E-01
RMM:  18    -0.116967959307E+04   -0.21796E-03   -0.58961E-03  1679   0.109E-01    0.318E-01
RMM:  19    -0.116967931366E+04    0.27941E-03   -0.22066E-03  1609   0.704E-02    0.229E-01
RMM:  20    -0.116967956111E+04   -0.24746E-03   -0.14176E-03  1692   0.544E-02    0.140E-01
RMM:  21    -0.116967947545E+04    0.85661E-04   -0.27544E-04  1550   0.261E-02    0.108E-01
RMM:  22    -0.116967948291E+04   -0.74612E-05   -0.19900E-04  1554   0.199E-02    0.538E-02
RMM:  23    -0.116967947278E+04    0.10129E-04   -0.60292E-05  1754   0.115E-02    0.432E-02
RMM:  24    -0.116967946417E+04    0.86099E-05   -0.43849E-05  1595   0.868E-03    0.233E-02
RMM:  25    -0.116967946249E+04    0.16798E-05   -0.10857E-05  1540   0.514E-03    0.128E-02
RMM:  26    -0.116967945932E+04    0.31713E-05   -0.55891E-06  1304   0.320E-03    0.808E-03
RMM:  27    -0.116967945843E+04    0.89612E-06   -0.15999E-06  1051   0.203E-03
   1 F= -.11767373E+04 E0= -.11767373E+04  d E =-.117674E+04  mag=     2.0000
       N       E                     dE             d eps       ncg     rms          rms(c)
DAV:   1    -0.116967820487E+04    0.12545E-02   -0.25462E-01  1600   0.841E-01    0.149E-01
RMM:   2    -0.116967876481E+04   -0.55995E-03   -0.71313E-03  1583   0.135E-01    0.141E-01
RMM:   3    -0.116967885876E+04   -0.93952E-04   -0.16045E-03  1870   0.598E-02    0.123E-01
RMM:   4    -0.116967871570E+04    0.14306E-03   -0.26551E-04  1646   0.247E-02    0.994E-02
RMM:   5    -0.116967858387E+04    0.13183E-03   -0.41933E-04  1539   0.257E-02    0.608E-02
RMM:   6    -0.116967857851E+04    0.53656E-05   -0.20765E-04  1694   0.197E-02    0.404E-02
RMM:   7    -0.116967857031E+04    0.81983E-05   -0.35346E-05  1713   0.922E-03    0.278E-02
RMM:   8    -0.116967856556E+04    0.47523E-05   -0.33675E-05  1541   0.687E-03    0.148E-02
RMM:   9    -0.116967856590E+04   -0.33721E-06   -0.66726E-06  1450   0.425E-03
   2 F= -.11767370E+04 E0= -.11767370E+04  d E =0.336380E-03  mag=     2.0000
       N       E                     dE             d eps       ncg     rms          rms(c)
DAV:   1    -0.116967963357E+04   -0.10680E-02   -0.81427E-02  1728   0.474E-01    0.849E-02
RMM:   2    -0.116967975850E+04   -0.12492E-03   -0.18043E-03  1545   0.735E-02    0.779E-02
RMM:   3    -0.116967977876E+04   -0.20263E-04   -0.45984E-04  1874   0.329E-02    0.674E-02
RMM:   4    -0.116967972832E+04    0.50436E-04   -0.81618E-05  1627   0.134E-02    0.534E-02
RMM:   5    -0.116967968316E+04    0.45162E-04   -0.12039E-04  1538   0.138E-02    0.317E-02
RMM:   6    -0.116967967843E+04    0.47302E-05   -0.64335E-05  1645   0.109E-02    0.202E-02
RMM:   7    -0.116967967614E+04    0.22915E-05   -0.10610E-05  1590   0.532E-03    0.142E-02
RMM:   8    -0.116967967400E+04    0.21375E-05   -0.80577E-06  1469   0.367E-03    0.798E-03
RMM:   9    -0.116967967388E+04    0.12390E-06   -0.16706E-06  1041   0.242E-03
   3 F= -.11767377E+04 E0= -.11767377E+04  d E =-.457011E-03  mag=     2.0000
