       N       E                     dE             d eps       ncg     rms          rms(c)
DAV:   1     0.494935318223E+04    0.49494E+04   -0.16903E+05  1800   0.904E+02
DAV:   2    -0.424291996482E+02   -0.49918E+04   -0.45343E+04  2520   0.209E+02
DAV:   3    -0.118293877605E+04   -0.11405E+04   -0.11354E+04  2160   0.111E+02
DAV:   4    -0.122806027996E+04   -0.45122E+02   -0.44885E+02  2088   0.288E+01
DAV:   5    -0.122921130730E+04   -0.11510E+01   -0.11484E+01  2376   0.425E+00    0.646E+01
RMM:   6    -0.121313745651E+04    0.16074E+02   -0.20546E+01  1584   0.439E+00    0.522E+01
RMM:   7    -0.119739876137E+04    0.15739E+02   -0.89047E+00  1584   0.352E+00    0.412E+01
RMM:   8    -0.116807392349E+04    0.29325E+02   -0.48016E+01  1584   0.796E+00    0.251E+01
RMM:   9    -0.116481831398E+04    0.32556E+01   -0.13748E+01  1584   0.421E+00    0.173E+01
RMM:  10    -0.116622456717E+04   -0.14063E+01   -0.12604E+01  1584   0.400E+00    0.117E+01
RMM:  11    -0.116495380295E+04    0.12708E+01   -0.21444E+00  1614   0.137E+00    0.848E+00
RMM:  12    -0.116467779372E+04    0.27601E+00   -0.18182E-01  1592   0.463E-01    0.762E+00
RMM:  13    -0.116400867355E+04    0.66912E+00   -0.23252E+00  1584   0.166E+00    0.500E+00
RMM:  14    -0.116392544298E+04    0.83231E-01   -0.12356E-01  1595   0.400E-01    0.410E+00
RMM:  15    -0.116397006003E+04   -0.44617E-01   -0.38741E-02  1589   0.182E-01    0.234E+00
RMM:  16    -0.116402560036E+04   -0.55540E-01   -0.49946E-02  1606   0.182E-01    0.139E+00
RMM:  17    -0.116402674462E+04   -0.11443E-02   -0.91169E-03  1622   0.744E-02    0.900E-01
RMM:  18    -0.116402204109E+04    0.47035E-02   -0.18691E-02  1591   0.103E-01    0.438E-01
RMM:  19    -0.116401897808E+04    0.30630E-02   -0.47301E-03  1539   0.556E-02    0.515E-01
RMM:  20    -0.116402001664E+04   -0.10386E-02   -0.33964E-03  1458   0.468E-02    0.216E-01
RMM:  21    -0.116402021198E+04   -0.19535E-03   -0.10740E-03  1180   0.224E-02    0.122E-01
RMM:  22    -0.116402018276E+04    0.29221E-04   -0.29363E-04  1094   0.139E-02
   1 F= -.11711157E+04 E0= -.11711156E+04  d E =-.117112E+04  mag=    -1.0165
       N       E                     dE             d eps       ncg     rms          rms(c)
DAV:   1    -0.116401359619E+04    0.66158E-02   -0.24949E+00  1656   0.224E+00    0.658E-01
RMM:   2    -0.116401823187E+04   -0.46357E-02   -0.54866E-02  1587   0.308E-01    0.647E-01
RMM:   3    -0.116401819189E+04    0.39985E-04   -0.34175E-03  1616   0.638E-02    0.612E-01
RMM:   4    -0.116401687838E+04    0.13135E-02   -0.38392E-03  1586   0.712E-02    0.265E-01
RMM:   5    -0.116401706885E+04   -0.19047E-03   -0.19058E-03  1584   0.497E-02    0.894E-02
RMM:   6    -0.116401693285E+04    0.13600E-03   -0.13017E-04  1049   0.138E-02    0.636E-02
RMM:   7    -0.116401685506E+04    0.77785E-04   -0.38472E-04  1325   0.208E-02
   2 F= -.11711135E+04 E0= -.11711133E+04  d E =0.225553E-02  mag=    -0.9986
       N       E                     dE             d eps       ncg     rms          rms(c)
DAV:   1    -0.116402175813E+04   -0.48253E-02   -0.84530E-01  1728   0.130E+00    0.385E-01
RMM:   2    -0.116402315813E+04   -0.14000E-02   -0.17107E-02  1587   0.176E-01    0.377E-01
RMM:   3    -0.116402308154E+04    0.76588E-04   -0.97380E-04  1340   0.349E-02
   3 F= -.11711191E+04 E0= -.11711189E+04  d E =-.335391E-02  mag=    -0.9993
       N       E                     dE             d eps       ncg     rms          rms(c)
DAV:   1    -0.116401993575E+04    0.32224E-02   -0.10247E+00  1728   0.147E+00    0.304E-01
RMM:   2    -0.116402170119E+04   -0.17654E-02   -0.19879E-02  1588   0.203E-01    0.254E-01
RMM:   3    -0.116402163875E+04    0.62441E-04   -0.11990E-03  1432   0.429E-02    0.222E-01
RMM:   4    -0.116402127968E+04    0.35907E-03   -0.17263E-03  1559   0.466E-02    0.829E-02
RMM:   5    -0.116402128667E+04   -0.69929E-05   -0.18406E-04  1082   0.170E-02
   4 F= -.11711173E+04 E0= -.11711172E+04  d E =0.177712E-02  mag=    -0.9993
       N       E                     dE             d eps       ncg     rms          rms(c)
DAV:   1    -0.116402283844E+04   -0.15588E-02   -0.47343E-01  1728   0.100E+00    0.249E-01
RMM:   2    -0.116402354188E+04   -0.70344E-03   -0.85838E-03  1586   0.133E-01    0.220E-01
RMM:   3    -0.116402345586E+04    0.86017E-04   -0.52004E-04  1244   0.291E-02
   5 F= -.11711195E+04 E0= -.11711193E+04  d E =-.381464E-03  mag=    -0.9991
