       N       E                     dE             d eps       ncg     rms          rms(c)
DAV:   1     0.503682028305E+04    0.50368E+04   -0.17646E+05  1872   0.929E+02
DAV:   2    -0.802254113085E+01   -0.50448E+04   -0.46226E+04  2592   0.217E+02
DAV:   3    -0.119081420763E+04   -0.11828E+04   -0.11768E+04  2088   0.114E+02
DAV:   4    -0.124878926121E+04   -0.57975E+02   -0.57586E+02  2016   0.368E+01
DAV:   5    -0.125111046318E+04   -0.23212E+01   -0.23091E+01  2340   0.646E+00    0.669E+01
RMM:   6    -0.123545440974E+04    0.15656E+02   -0.87436E+00  1833   0.379E+00    0.551E+01
RMM:   7    -0.119932523370E+04    0.36129E+02   -0.11396E+02  1927   0.129E+01    0.338E+01
RMM:   8    -0.119022759889E+04    0.90976E+01   -0.74366E+00  1985   0.722E+00    0.270E+01
RMM:   9    -0.118692737527E+04    0.33002E+01   -0.10938E+01  1758   0.383E+00    0.220E+01
RMM:  10    -0.118720214025E+04   -0.27476E+00   -0.19658E+01  1957   0.687E+00    0.136E+01
RMM:  11    -0.118520427810E+04    0.19979E+01   -0.27180E+00  1936   0.341E+00    0.872E+00
RMM:  12    -0.118349852628E+04    0.17058E+01   -0.25421E+00  2009   0.206E+00    0.555E+00
RMM:  13    -0.118342525803E+04    0.73268E-01   -0.90399E-01  1854   0.118E+00    0.520E+00
RMM:  14    -0.118334258036E+04    0.82678E-01   -0.12623E-01  1941   0.874E-01    0.397E+00
RMM:  15    -0.118317497273E+04    0.16761E+00   -0.71539E-01  1786   0.983E-01    0.202E+00
RMM:  16    -0.118319744910E+04   -0.22476E-01   -0.93333E-02  1794   0.950E-01    0.171E+00
RMM:  17    -0.118322911115E+04   -0.31662E-01   -0.25419E-02  1917   0.222E-01    0.142E+00
RMM:  18    -0.118322380889E+04    0.53023E-02   -0.52391E-02  1787   0.320E-01    0.123E+00
RMM:  19    -0.118323044310E+04   -0.66342E-02   -0.90220E-03  1725   0.207E-01    0.723E-01
RMM:  20    -0.118323255526E+04   -0.21122E-02   -0.31803E-03  1663   0.108E-01    0.584E-01
RMM:  21    -0.118323291731E+04   -0.36205E-03   -0.27949E-03  1562   0.964E-02    0.381E-01
RMM:  22    -0.118323284038E+04    0.76932E-04   -0.77159E-04  1380   0.654E-02
   1 F= -.11904093E+04 E0= -.11904093E+04  d E =-.119041E+04  mag=     1.0138
       N       E                     dE             d eps       ncg     rms          rms(c)
DAV:   1    -0.118323269189E+04    0.22542E-03   -0.29001E-01  1692   0.828E-01    0.222E-01
RMM:   2    -0.118323336597E+04   -0.67408E-03   -0.92995E-03  1785   0.142E-01    0.200E-01
RMM:   3    -0.118323329700E+04    0.68965E-04   -0.10609E-03  1506   0.120E-01    0.159E-01
RMM:   4    -0.118323321993E+04    0.77069E-04   -0.32953E-04  1216   0.354E-02
   2 F= -.11904098E+04 E0= -.11904098E+04  d E =-.522084E-03  mag=     0.9964
       N       E                     dE             d eps       ncg     rms          rms(c)
DAV:   1    -0.118323362994E+04   -0.33294E-03   -0.38379E-02  1800   0.303E-01    0.523E-02
RMM:   2    -0.118323380050E+04   -0.17056E-03   -0.12475E-03  1576   0.549E-02    0.632E-02
RMM:   3    -0.118323380656E+04   -0.60559E-05   -0.14116E-04  1025   0.553E-02
   3 F= -.11904103E+04 E0= -.11904103E+04  d E =-.106013E-02  mag=     0.9987
       N       E                     dE             d eps       ncg     rms          rms(c)
DAV:   1    -0.118323418098E+04   -0.38048E-03   -0.13808E-01  1728   0.606E-01    0.114E-01
RMM:   2    -0.118323441449E+04   -0.23351E-03   -0.38881E-03  1829   0.110E-01    0.120E-01
RMM:   3    -0.118323438830E+04    0.26187E-04   -0.39080E-04  1283   0.686E-02
   4 F= -.11904107E+04 E0= -.11904107E+04  d E =-.432731E-03  mag=     0.9994
       N       E                     dE             d eps       ncg     rms          rms(c)
DAV:   1    -0.118323442252E+04   -0.80330E-05   -0.14291E-02  1872   0.197E-01    0.856E-02
RMM:   2    -0.118323445769E+04   -0.35173E-04   -0.45178E-04  1342   0.332E-02
   5 F= -.11904109E+04 E0= -.11904109E+04  d E =-.549481E-03  mag=     1.0001
