       N       E                     dE             d eps       ncg     rms          rms(c)
DAV:   1     0.474909956149E+04    0.47491E+04   -0.18320E+05  1920   0.965E+02
DAV:   2    -0.579606674421E+02   -0.48071E+04   -0.44121E+04  2464   0.215E+02
DAV:   3    -0.120341940004E+04   -0.11455E+04   -0.11382E+04  1952   0.112E+02
DAV:   4    -0.125269870022E+04   -0.49279E+02   -0.48912E+02  1920   0.310E+01
DAV:   5    -0.125393282931E+04   -0.12341E+01   -0.12299E+01  2272   0.453E+00    0.812E+01
RMM:   6    -0.124638021965E+04    0.75526E+01   -0.98350E+01  1817   0.121E+01    0.755E+01
RMM:   7    -0.122324791142E+04    0.23132E+02   -0.11509E+01  1602   0.478E+00    0.480E+01
RMM:   8    -0.120773389853E+04    0.15514E+02   -0.14132E+01  1580   0.493E+00    0.391E+01
RMM:   9    -0.119236207634E+04    0.15372E+02   -0.15593E+01  1666   0.538E+00    0.277E+01
RMM:  10    -0.118038953706E+04    0.11973E+02   -0.24262E+01  1653   0.638E+00    0.182E+01
RMM:  11    -0.118068135556E+04   -0.29182E+00   -0.16334E+01  1543   0.540E+00    0.850E+00
RMM:  12    -0.118070830935E+04   -0.26954E-01   -0.14712E+00  1674   0.209E+00    0.651E+00
RMM:  13    -0.118029875606E+04    0.40955E+00   -0.58972E-01  1570   0.114E+00    0.276E+00
RMM:  14    -0.118015007242E+04    0.14868E+00   -0.45830E-01  1536   0.880E-01    0.166E+00
RMM:  15    -0.118015238133E+04   -0.23089E-02   -0.89959E-02  1596   0.458E-01    0.882E-01
RMM:  16    -0.118014967868E+04    0.27027E-02   -0.16794E-02  1800   0.202E-01    0.485E-01
RMM:  17    -0.118014990563E+04   -0.22695E-03   -0.10806E-02  1585   0.142E-01    0.307E-01
RMM:  18    -0.118015036820E+04   -0.46257E-03   -0.32558E-03  2000   0.836E-02    0.179E-01
RMM:  19    -0.118015027548E+04    0.92719E-04   -0.76790E-04  1547   0.406E-02    0.130E-01
RMM:  20    -0.118015046280E+04   -0.18732E-03   -0.46552E-04  1624   0.295E-02    0.766E-02
RMM:  21    -0.118015050068E+04   -0.37880E-04   -0.18196E-04  1573   0.198E-02    0.614E-02
RMM:  22    -0.118015050318E+04   -0.24946E-05   -0.93931E-05  1568   0.129E-02    0.384E-02
RMM:  23    -0.118015051748E+04   -0.14298E-04   -0.29797E-05  1590   0.778E-03    0.263E-02
RMM:  24    -0.118015051918E+04   -0.17004E-05   -0.73791E-06  1554   0.379E-03    0.259E-02
RMM:  25    -0.118015052018E+04   -0.10054E-05   -0.22290E-06  1089   0.214E-03    0.243E-02
RMM:  26    -0.118015051997E+04    0.21528E-06   -0.42582E-06  1189   0.267E-03
   1 F= -.11872815E+04 E0= -.11872815E+04  d E =-.118728E+04  mag=     1.9995
       N       E                     dE             d eps       ncg     rms          rms(c)
DAV:   1    -0.118014805255E+04    0.24676E-02   -0.44025E-01  1632   0.120E+00    0.170E-01
RMM:   2    -0.118014923045E+04   -0.11779E-02   -0.14481E-02  1738   0.190E-01    0.151E-01
RMM:   3    -0.118014938494E+04   -0.15449E-03   -0.28914E-03  2026   0.791E-02    0.134E-01
RMM:   4    -0.118014927432E+04    0.11062E-03   -0.63486E-04  1724   0.352E-02    0.927E-02
RMM:   5    -0.118014928904E+04   -0.14717E-04   -0.55425E-04  1601   0.303E-02    0.542E-02
RMM:   6    -0.118014931366E+04   -0.24617E-04   -0.15575E-04  2178   0.168E-02    0.463E-02
RMM:   7    -0.118014929470E+04    0.18960E-04   -0.71229E-05  1577   0.954E-03    0.270E-02
RMM:   8    -0.118014930646E+04   -0.11765E-04   -0.30273E-05  1671   0.750E-03    0.130E-02
RMM:   9    -0.118014930440E+04    0.20625E-05   -0.15100E-05  1759   0.499E-03    0.885E-03
RMM:  10    -0.118014930518E+04   -0.77694E-06   -0.86277E-06  1633   0.364E-03
   2 F= -.11872810E+04 E0= -.11872810E+04  d E =0.502380E-03  mag=     2.0000
       N       E                     dE             d eps       ncg     rms          rms(c)
DAV:   1    -0.118015060868E+04   -0.13043E-02   -0.14314E-01  1728   0.683E-01    0.976E-02
RMM:   2    -0.118015090793E+04   -0.29925E-03   -0.39565E-03  1723   0.105E-01    0.850E-02
RMM:   3    -0.118015092119E+04   -0.13267E-04   -0.64457E-04  1766   0.418E-02    0.720E-02
RMM:   4    -0.118015088995E+04    0.31248E-04   -0.23660E-04  1707   0.215E-02    0.464E-02
RMM:   5    -0.118015089426E+04   -0.43102E-05   -0.13207E-04  1683   0.151E-02    0.290E-02
RMM:   6    -0.118015089902E+04   -0.47591E-05   -0.30914E-05  2115   0.754E-03    0.247E-02
RMM:   7    -0.118015089622E+04    0.27966E-05   -0.22453E-05  1586   0.547E-03    0.130E-02
RMM:   8    -0.118015089914E+04   -0.29237E-05   -0.58158E-06  1631   0.362E-03    0.732E-03
RMM:   9    -0.118015089858E+04    0.56587E-06   -0.53143E-06  1530   0.295E-03
   3 F= -.11872822E+04 E0= -.11872822E+04  d E =-.685099E-03  mag=     2.0000
       N       E                     dE             d eps       ncg     rms          rms(c)
DAV:   1    -0.118015027248E+04    0.62666E-03   -0.33171E-01  1792   0.993E-01    0.153E-01
RMM:   2    -0.118015100965E+04   -0.73718E-03   -0.10056E-02  1777   0.143E-01    0.121E-01
RMM:   3    -0.118015110783E+04   -0.98180E-04   -0.13950E-03  1779   0.562E-02    0.968E-02
RMM:   4    -0.118015118768E+04   -0.79842E-04   -0.38013E-04  1772   0.259E-02    0.623E-02
RMM:   5    -0.118015125573E+04   -0.68054E-04   -0.13871E-04  1723   0.158E-02    0.367E-02
RMM:   6    -0.118015128810E+04   -0.32372E-04   -0.32018E-05  1973   0.813E-03    0.250E-02
RMM:   7    -0.118015129957E+04   -0.11473E-04   -0.10335E-05  1551   0.453E-03    0.137E-02
RMM:   8    -0.118015130234E+04   -0.27628E-05   -0.58677E-06  1457   0.321E-03    0.744E-03
RMM:   9    -0.118015130251E+04   -0.17414E-06   -0.33036E-06  1286   0.230E-03
   4 F= -.11872831E+04 E0= -.11872831E+04  d E =-.868038E-03  mag=     2.0000
       N       E                     dE             d eps       ncg     rms          rms(c)
DAV:   1    -0.118015128718E+04    0.15158E-04   -0.37950E-04  1728   0.336E-02    0.753E-03
RMM:   2    -0.118015128801E+04   -0.82680E-06   -0.11380E-05  1485   0.486E-03    0.683E-03
RMM:   3    -0.118015128827E+04   -0.26644E-06   -0.16810E-06  1075   0.195E-03
   5 F= -.11872831E+04 E0= -.11872831E+04  d E =-.869493E-03  mag=     2.0000
       N       E                     dE             d eps       ncg     rms          rms(c)
DAV:   1    -0.118015124833E+04    0.39680E-04   -0.14535E-01  1664   0.655E-01    0.106E-01
RMM:   2    -0.118015160790E+04   -0.35957E-03   -0.51540E-03  1808   0.950E-02    0.806E-02
RMM:   3    -0.118015166601E+04   -0.58113E-04   -0.64910E-04  1804   0.366E-02    0.636E-02
RMM:   4    -0.118015172615E+04   -0.60132E-04   -0.19614E-04  1779   0.173E-02    0.414E-02
RMM:   5    -0.118015175825E+04   -0.32108E-04   -0.44102E-05  1738   0.904E-03    0.279E-02
RMM:   6    -0.118015178294E+04   -0.24681E-04   -0.14079E-05  1621   0.541E-03    0.172E-02
RMM:   7    -0.118015179051E+04   -0.75702E-05   -0.46916E-06  1239   0.330E-03    0.100E-02
RMM:   8    -0.118015179153E+04   -0.10208E-05   -0.29582E-06  1204   0.234E-03    0.479E-03
RMM:   9    -0.118015179202E+04   -0.49796E-06   -0.75757E-07  1008   0.130E-03
   6 F= -.11872838E+04 E0= -.11872838E+04  d E =-.727548E-03  mag=     2.0000
       N       E                     dE             d eps       ncg     rms          rms(c)
DAV:   1    -0.118015130352E+04    0.48801E-03   -0.16586E-01  1632   0.700E-01    0.112E-01
RMM:   2    -0.118015172109E+04   -0.41757E-03   -0.58692E-03  1808   0.101E-01    0.847E-02
RMM:   3    -0.118015178950E+04   -0.68416E-04   -0.75310E-04  1808   0.390E-02    0.668E-02
RMM:   4    -0.118015185325E+04   -0.63749E-04   -0.21151E-04  1791   0.181E-02    0.440E-02
RMM:   5    -0.118015188741E+04   -0.34154E-04   -0.46818E-05  1729   0.948E-03    0.287E-02
RMM:   6    -0.118015191688E+04   -0.29479E-04   -0.16860E-05  1621   0.597E-03    0.165E-02
RMM:   7    -0.118015192627E+04   -0.93817E-05   -0.51977E-06  1293   0.350E-03    0.902E-03
RMM:   8    -0.118015192681E+04   -0.54840E-06   -0.31060E-06  1238   0.238E-03
   7 F= -.11872842E+04 E0= -.11872842E+04  d E =-.110266E-02  mag=     2.0000
       N       E                     dE             d eps       ncg     rms          rms(c)
DAV:   1    -0.118015169062E+04    0.23565E-03   -0.19302E-01  1664   0.769E-01    0.126E-01
RMM:   2    -0.118015229255E+04   -0.60194E-03   -0.79202E-03  1828   0.113E-01    0.944E-02
RMM:   3    -0.118015238101E+04   -0.88455E-04   -0.94802E-04  1822   0.428E-02    0.741E-02
RMM:   4    -0.118015243968E+04   -0.58669E-04   -0.25081E-04  1874   0.188E-02    0.553E-02
RMM:   5    -0.118015248028E+04   -0.40606E-04   -0.51414E-05  1679   0.100E-02    0.351E-02
RMM:   6    -0.118015252518E+04   -0.44894E-04   -0.27102E-05  1555   0.745E-03    0.183E-02
RMM:   7    -0.118015253866E+04   -0.13481E-04   -0.73064E-06  1395   0.410E-03    0.916E-03
RMM:   8    -0.118015253943E+04   -0.77346E-06   -0.34514E-06  1298   0.250E-03
   8 F= -.11872850E+04 E0= -.11872850E+04  d E =-.863046E-03  mag=     2.0000
       N       E                     dE             d eps       ncg     rms          rms(c)
DAV:   1    -0.118015170148E+04    0.83718E-03   -0.22852E-01  1536   0.836E-01    0.137E-01
RMM:   2    -0.118015242281E+04   -0.72133E-03   -0.93855E-03  1828   0.123E-01    0.103E-01
RMM:   3    -0.118015252801E+04   -0.10520E-03   -0.11186E-03  1820   0.466E-02    0.807E-02
RMM:   4    -0.118015259465E+04   -0.66643E-04   -0.30169E-04  1874   0.206E-02    0.603E-02
RMM:   5    -0.118015263819E+04   -0.43533E-04   -0.61174E-05  1690   0.109E-02    0.384E-02
RMM:   6    -0.118015269047E+04   -0.52286E-04   -0.31367E-05  1567   0.804E-03    0.202E-02
RMM:   7    -0.118015270748E+04   -0.17007E-04   -0.86115E-06  1508   0.451E-03    0.100E-02
RMM:   8    -0.118015270847E+04   -0.98829E-06   -0.41770E-06  1372   0.275E-03
   9 F= -.11872855E+04 E0= -.11872855E+04  d E =-.130705E-02  mag=     2.0000
       N       E                     dE             d eps       ncg     rms          rms(c)
DAV:   1    -0.118015254312E+04    0.16436E-03   -0.24131E-02  1696   0.272E-01    0.446E-02
RMM:   2    -0.118015260991E+04   -0.66792E-04   -0.98514E-04  1826   0.401E-02    0.337E-02
RMM:   3    -0.118015262028E+04   -0.10375E-04   -0.11535E-04  1819   0.152E-02    0.266E-02
RMM:   4    -0.118015263297E+04   -0.12690E-04   -0.32197E-05  1794   0.672E-03    0.199E-02
RMM:   5    -0.118015264178E+04   -0.88112E-05   -0.64368E-06  1470   0.361E-03    0.124E-02
RMM:   6    -0.118015264876E+04   -0.69740E-05   -0.32030E-06  1148   0.259E-03    0.631E-03
RMM:   7    -0.118015265053E+04   -0.17686E-05   -0.84660E-07  1034   0.144E-03    0.319E-03
RMM:   8    -0.118015265060E+04   -0.76823E-07   -0.45802E-07   997   0.952E-04
  10 F= -.11872855E+04 E0= -.11872855E+04  d E =-.133900E-02  mag=     2.0000
       N       E                     dE             d eps       ncg     rms          rms(c)
DAV:   1    -0.118015237855E+04    0.27198E-03   -0.15764E-01  1536   0.649E-01    0.110E-01
RMM:   2    -0.118015277995E+04   -0.40140E-03   -0.56724E-03  1832   0.945E-02    0.816E-02
RMM:   3    -0.118015284457E+04   -0.64627E-04   -0.67391E-04  1796   0.357E-02    0.639E-02
RMM:   4    -0.118015290138E+04   -0.56805E-04   -0.19136E-04  1835   0.163E-02    0.446E-02
RMM:   5    -0.118015293897E+04   -0.37591E-04   -0.38006E-05  1671   0.859E-03    0.279E-02
RMM:   6    -0.118015297614E+04   -0.37167E-04   -0.16409E-05  1542   0.587E-03    0.139E-02
RMM:   7    -0.118015298519E+04   -0.90505E-05   -0.43819E-06  1224   0.311E-03    0.754E-03
RMM:   8    -0.118015298583E+04   -0.64360E-06   -0.21307E-06  1077   0.199E-03
  11 F= -.11872861E+04 E0= -.11872861E+04  d E =-.533073E-03  mag=     2.0000
       N       E                     dE             d eps       ncg     rms          rms(c)
DAV:   1    -0.118015220246E+04    0.78273E-03   -0.24081E-01  1536   0.803E-01    0.136E-01
RMM:   2    -0.118015284216E+04   -0.63970E-03   -0.86880E-03  1831   0.117E-01    0.101E-01
RMM:   3    -0.118015294273E+04   -0.10057E-03   -0.10342E-03  1797   0.442E-02    0.792E-02
RMM:   4    -0.118015301923E+04   -0.76502E-04   -0.29219E-04  1837   0.201E-02    0.555E-02
RMM:   5    -0.118015306635E+04   -0.47119E-04   -0.57358E-05  1693   0.105E-02    0.346E-02
RMM:   6    -0.118015312204E+04   -0.55684E-04   -0.24871E-05  1569   0.726E-03    0.174E-02
RMM:   7    -0.118015313584E+04   -0.13805E-04   -0.66521E-06  1350   0.382E-03    0.979E-03
RMM:   8    -0.118015313695E+04   -0.11130E-05   -0.36206E-06  1318   0.255E-03    0.464E-03
RMM:   9    -0.118015313746E+04   -0.51029E-06   -0.12110E-06  1032   0.149E-03
  12 F= -.11872865E+04 E0= -.11872865E+04  d E =-.931063E-03  mag=     2.0000
       N       E                     dE             d eps       ncg     rms          rms(c)
DAV:   1    -0.118014879935E+04    0.43376E-02   -0.96285E-01  1536   0.161E+00    0.272E-01
RMM:   2    -0.118015160613E+04   -0.28068E-02   -0.34728E-02  1835   0.234E-01    0.201E-01
RMM:   3    -0.118015200004E+04   -0.39391E-03   -0.41304E-03  1795   0.885E-02    0.158E-01
RMM:   4    -0.118015221785E+04   -0.21781E-03   -0.11668E-03  1839   0.404E-02    0.111E-01
RMM:   5    -0.118015231920E+04   -0.10135E-03   -0.23064E-04  1722   0.210E-02    0.693E-02
RMM:   6    -0.118015246725E+04   -0.14805E-03   -0.98141E-05  1602   0.142E-02    0.350E-02
RMM:   7    -0.118015251649E+04   -0.49240E-04   -0.26549E-05  1818   0.768E-03    0.194E-02
RMM:   8    -0.118015252128E+04   -0.47828E-05   -0.14013E-05  1517   0.497E-03    0.957E-03
RMM:   9    -0.118015252342E+04   -0.21468E-05   -0.43552E-06  1311   0.272E-03    0.795E-03
RMM:  10    -0.118015252411E+04   -0.68429E-06   -0.68894E-07  1024   0.124E-03
  13 F= -.11872863E+04 E0= -.11872863E+04  d E =-.816646E-03  mag=     2.0000
       N       E                     dE             d eps       ncg     rms          rms(c)
DAV:   1    -0.118015170208E+04    0.82134E-03   -0.36138E-01  1536   0.984E-01    0.167E-01
RMM:   2    -0.118015267435E+04   -0.97227E-03   -0.12758E-02  1830   0.143E-01    0.123E-01
RMM:   3    -0.118015281478E+04   -0.14043E-03   -0.14802E-03  1789   0.540E-02    0.959E-02
RMM:   4    -0.118015290178E+04   -0.86996E-04   -0.40667E-04  1843   0.247E-02    0.673E-02
RMM:   5    -0.118015295534E+04   -0.53557E-04   -0.88981E-05  1693   0.132E-02    0.418E-02
RMM:   6    -0.118015302451E+04   -0.69175E-04   -0.39721E-05  1600   0.904E-03    0.206E-02
RMM:   7    -0.118015304343E+04   -0.18920E-04   -0.10466E-05  1548   0.465E-03    0.113E-02
RMM:   8    -0.118015304535E+04   -0.19199E-05   -0.41632E-06  1365   0.277E-03    0.698E-03
RMM:   9    -0.118015304627E+04   -0.91631E-06   -0.15442E-06  1041   0.168E-03
  14 F= -.11872866E+04 E0= -.11872866E+04  d E =-.103222E-02  mag=     2.0000
       N       E                     dE             d eps       ncg     rms          rms(c)
DAV:   1    -0.118015250266E+04    0.54269E-03   -0.31157E-01  1536   0.876E-01    0.153E-01
RMM:   2    -0.118015325666E+04   -0.75400E-03   -0.10236E-02  1828   0.127E-01    0.113E-01
RMM:   3    -0.118015337148E+04   -0.11483E-03   -0.12729E-03  1782   0.486E-02    0.874E-02
RMM:   4    -0.118015345533E+04   -0.83845E-04   -0.34755E-04  1784   0.231E-02    0.540E-02
RMM:   5    -0.118015351051E+04   -0.55180E-04   -0.81582E-05  1731   0.120E-02    0.334E-02
RMM:   6    -0.118015356451E+04   -0.53997E-04   -0.22698E-05  1709   0.694E-03    0.175E-02
RMM:   7    -0.118015357984E+04   -0.15329E-04   -0.69188E-06  1325   0.380E-03    0.976E-03
RMM:   8    -0.118015358173E+04   -0.18911E-05   -0.45519E-06  1395   0.277E-03    0.518E-03
RMM:   9    -0.118015358220E+04   -0.47362E-06   -0.20188E-06  1082   0.178E-03
  15 F= -.11872873E+04 E0= -.11872873E+04  d E =-.788652E-03  mag=     2.0000
       N       E                     dE             d eps       ncg     rms          rms(c)
DAV:   1    -0.118014897904E+04    0.46027E-02   -0.13240E+00  1536   0.181E+00    0.317E-01
RMM:   2    -0.118015255181E+04   -0.35728E-02   -0.44469E-02  1825   0.263E-01    0.234E-01
RMM:   3    -0.118015304694E+04   -0.49513E-03   -0.55626E-03  1788   0.101E-01    0.182E-01
RMM:   4    -0.118015333279E+04   -0.28585E-03   -0.14653E-03  1787   0.469E-02    0.115E-01
RMM:   5    -0.118015348058E+04   -0.14779E-03   -0.32935E-04  1761   0.245E-02    0.707E-02
RMM:   6    -0.118015364098E+04   -0.16040E-03   -0.99270E-05  1749   0.142E-02    0.375E-02
RMM:   7    -0.118015369727E+04   -0.56292E-04   -0.29179E-05  1741   0.790E-03    0.217E-02
RMM:   8    -0.118015370347E+04   -0.61974E-05   -0.21795E-05  1546   0.590E-03    0.118E-02
RMM:   9    -0.118015370564E+04   -0.21750E-05   -0.93822E-06  1492   0.380E-03    0.712E-03
RMM:  10    -0.118015370681E+04   -0.11735E-05   -0.16176E-06  1083   0.175E-03    0.532E-03
RMM:  11    -0.118015370711E+04   -0.29292E-06   -0.39017E-07  1004   0.937E-04
  16 F= -.11872880E+04 E0= -.11872880E+04  d E =-.144110E-02  mag=     2.0000
       N       E                     dE             d eps       ncg     rms          rms(c)
DAV:   1    -0.118015277208E+04    0.93473E-03   -0.38793E-01  1536   0.100E+00    0.173E-01
RMM:   2    -0.118015383284E+04   -0.10608E-02   -0.13832E-02  1829   0.145E-01    0.127E-01
RMM:   3    -0.118015399622E+04   -0.16338E-03   -0.16700E-03  1790   0.555E-02    0.991E-02
RMM:   4    -0.118015410689E+04   -0.11067E-03   -0.48102E-04  1817   0.257E-02    0.660E-02
RMM:   5    -0.118015416295E+04   -0.56059E-04   -0.88544E-05  1714   0.128E-02    0.415E-02
RMM:   6    -0.118015423537E+04   -0.72416E-04   -0.32420E-05  1627   0.835E-03    0.198E-02
RMM:   7    -0.118015425712E+04   -0.21751E-04   -0.10257E-05  1477   0.462E-03    0.119E-02
RMM:   8    -0.118015425915E+04   -0.20308E-05   -0.43335E-06  1346   0.278E-03    0.848E-03
RMM:   9    -0.118015426006E+04   -0.90520E-06   -0.26770E-06  1171   0.207E-03
  17 F= -.11872888E+04 E0= -.11872888E+04  d E =-.849937E-03  mag=     2.0000
