       N       E                     dE             d eps       ncg     rms          rms(c)
DAV:   1     0.476800493687E+04    0.47680E+04   -0.17416E+05  1856   0.936E+02
DAV:   2    -0.464921625975E+02   -0.48145E+04   -0.43758E+04  2464   0.209E+02
DAV:   3    -0.118137654884E+04   -0.11349E+04   -0.11296E+04  2016   0.111E+02
DAV:   4    -0.122817717962E+04   -0.46801E+02   -0.46511E+02  1952   0.299E+01
DAV:   5    -0.122939212805E+04   -0.12149E+01   -0.12119E+01  2304   0.445E+00    0.682E+01
RMM:   6    -0.121054161235E+04    0.18851E+02   -0.12804E+01  1603   0.412E+00    0.532E+01
RMM:   7    -0.119335308831E+04    0.17189E+02   -0.14750E+01  1538   0.498E+00    0.405E+01
RMM:   8    -0.116570982997E+04    0.27643E+02   -0.46397E+01  1627   0.870E+00    0.246E+01
RMM:   9    -0.116231211493E+04    0.33977E+01   -0.41277E+01  1562   0.830E+00    0.965E+00
RMM:  10    -0.116299048780E+04   -0.67837E+00   -0.35574E+00  1611   0.318E+00    0.805E+00
RMM:  11    -0.116294803272E+04    0.42455E-01   -0.17048E+00  1556   0.172E+00    0.380E+00
RMM:  12    -0.116277145097E+04    0.17658E+00   -0.64220E-01  1545   0.108E+00    0.169E+00
RMM:  13    -0.116280080429E+04   -0.29353E-01   -0.23482E-01  1582   0.656E-01    0.105E+00
RMM:  14    -0.116279950654E+04    0.12978E-02   -0.60137E-02  1585   0.360E-01    0.451E-01
RMM:  15    -0.116280125361E+04   -0.17471E-02   -0.36122E-02  1551   0.250E-01    0.237E-01
RMM:  16    -0.116280114163E+04    0.11199E-03   -0.50688E-03  1671   0.113E-01    0.151E-01
RMM:  17    -0.116280131751E+04   -0.17588E-03   -0.26296E-03  1652   0.694E-02    0.102E-01
RMM:  18    -0.116280139710E+04   -0.79592E-04   -0.40141E-04  1610   0.327E-02    0.701E-02
RMM:  19    -0.116280151368E+04   -0.11658E-03   -0.59568E-04  1542   0.311E-02    0.388E-02
RMM:  20    -0.116280150056E+04    0.13122E-04   -0.76253E-05  1571   0.135E-02    0.251E-02
RMM:  21    -0.116280149893E+04    0.16351E-05   -0.35223E-05  1613   0.755E-03    0.190E-02
RMM:  22    -0.116280150254E+04   -0.36145E-05   -0.14256E-05  1642   0.487E-03    0.131E-02
RMM:  23    -0.116280149983E+04    0.27118E-05   -0.12713E-05  1535   0.438E-03    0.828E-03
RMM:  24    -0.116280150011E+04   -0.28477E-06   -0.31175E-06  1173   0.235E-03
   1 F= -.11628015E+04 E0= -.11628015E+04  d E =-.116280E+04  mag=     4.0002
       N       E                     dE             d eps       ncg     rms          rms(c)
DAV:   1    -0.116260966650E+04    0.19183E+00   -0.57204E+01  1664   0.111E+01    0.381E+00
RMM:   2    -0.116271695664E+04   -0.10729E+00   -0.11701E+00  1620   0.159E+00    0.363E+00
RMM:   3    -0.116272357156E+04   -0.66149E-02   -0.26153E-01  1795   0.695E-01    0.291E+00
RMM:   4    -0.116271169549E+04    0.11876E-01   -0.17586E-01  1585   0.546E-01    0.106E+00
RMM:   5    -0.116271627213E+04   -0.45766E-02   -0.41523E-02  1724   0.283E-01    0.595E-01
RMM:   6    -0.116271171188E+04    0.45602E-02   -0.12856E-02  1624   0.134E-01    0.300E-01
RMM:   7    -0.116271107293E+04    0.63896E-03   -0.66160E-03  1665   0.926E-02    0.150E-01
RMM:   8    -0.116271118393E+04   -0.11101E-03   -0.22211E-03  2033   0.533E-02    0.106E-01
RMM:   9    -0.116271107747E+04    0.10646E-03   -0.27921E-04  1619   0.228E-02    0.851E-02
RMM:  10    -0.116271103601E+04    0.41464E-04   -0.50829E-04  1550   0.275E-02    0.402E-02
RMM:  11    -0.116271102865E+04    0.73570E-05   -0.74083E-05  1714   0.121E-02    0.286E-02
RMM:  12    -0.116271103710E+04   -0.84526E-05   -0.42863E-05  1595   0.799E-03    0.174E-02
RMM:  13    -0.116271103943E+04   -0.23277E-05   -0.12357E-05  1637   0.454E-03    0.139E-02
RMM:  14    -0.116271103875E+04    0.67802E-06   -0.56861E-06  1389   0.311E-03
   2 F= -.11627110E+04 E0= -.11627110E+04  d E =0.904614E-01  mag=     4.0000
       N       E                     dE             d eps       ncg     rms          rms(c)
DAV:   1    -0.116281758969E+04   -0.10655E+00   -0.21988E+01  1792   0.690E+00    0.244E+00
RMM:   2    -0.116285856441E+04   -0.40975E-01   -0.45356E-01  1632   0.997E-01    0.219E+00
RMM:   3    -0.116285701498E+04    0.15494E-02   -0.10156E-01  1730   0.440E-01    0.159E+00
RMM:   4    -0.116285590202E+04    0.11130E-02   -0.60253E-02  1610   0.311E-01    0.701E-01
RMM:   5    -0.116285576905E+04    0.13297E-03   -0.11395E-02  1757   0.156E-01    0.334E-01
RMM:   6    -0.116285527100E+04    0.49806E-03   -0.30147E-03  1694   0.649E-02    0.270E-01
RMM:   7    -0.116285508499E+04    0.18600E-03   -0.31290E-03  1603   0.613E-02    0.121E-01
RMM:   8    -0.116285516781E+04   -0.82814E-04   -0.46117E-04  1859   0.308E-02    0.101E-01
RMM:   9    -0.116285512445E+04    0.43361E-04   -0.19826E-04  1609   0.171E-02    0.658E-02
RMM:  10    -0.116285514194E+04   -0.17497E-04   -0.20652E-04  1582   0.176E-02    0.286E-02
RMM:  11    -0.116285513366E+04    0.82807E-05   -0.32732E-05  1581   0.821E-03    0.192E-02
RMM:  12    -0.116285513200E+04    0.16661E-05   -0.22236E-05  1541   0.561E-03    0.103E-02
RMM:  13    -0.116285513028E+04    0.17173E-05   -0.77225E-06  1483   0.360E-03    0.587E-03
RMM:  14    -0.116285512963E+04    0.65154E-06   -0.26121E-06  1153   0.216E-03
   3 F= -.11628551E+04 E0= -.11628551E+04  d E =-.536295E-01  mag=     4.0000
       N       E                     dE             d eps       ncg     rms          rms(c)
DAV:   1    -0.116285460643E+04    0.52385E-03   -0.79691E+00  1632   0.445E+00    0.128E+00
RMM:   2    -0.116286467553E+04   -0.10069E-01   -0.13249E-01  1542   0.584E-01    0.114E+00
RMM:   3    -0.116286226547E+04    0.24101E-02   -0.32201E-02  1640   0.263E-01    0.797E-01
RMM:   4    -0.116286011244E+04    0.21530E-02   -0.17307E-02  1557   0.183E-01    0.334E-01
RMM:   5    -0.116286076989E+04   -0.65745E-03   -0.47189E-03  1644   0.991E-02    0.158E-01
RMM:   6    -0.116286032105E+04    0.44884E-03   -0.70938E-04  1608   0.403E-02    0.123E-01
RMM:   7    -0.116286012436E+04    0.19669E-03   -0.16938E-03  1571   0.464E-02    0.553E-02
RMM:   8    -0.116286009974E+04    0.24626E-04   -0.15786E-04  1611   0.204E-02    0.397E-02
RMM:   9    -0.116286007287E+04    0.26869E-04   -0.94391E-05  1553   0.127E-02    0.252E-02
RMM:  10    -0.116286007276E+04    0.10914E-06   -0.34792E-05  1613   0.800E-03    0.143E-02
RMM:  11    -0.116286007123E+04    0.15307E-05   -0.10167E-05  1604   0.426E-03    0.953E-03
RMM:  12    -0.116286007123E+04   -0.75670E-09   -0.66734E-06  1515   0.332E-03
   4 F= -.11628601E+04 E0= -.11628601E+04  d E =-.494160E-02  mag=     4.0000
       N       E                     dE             d eps       ncg     rms          rms(c)
DAV:   1    -0.116286898793E+04   -0.89167E-02   -0.16239E+00  1632   0.200E+00    0.582E-01
RMM:   2    -0.116287104139E+04   -0.20535E-02   -0.27114E-02  1542   0.264E-01    0.511E-01
RMM:   3    -0.116287062088E+04    0.42051E-03   -0.64771E-03  1638   0.118E-01    0.362E-01
RMM:   4    -0.116287015817E+04    0.46271E-03   -0.32793E-03  1559   0.800E-02    0.158E-01
RMM:   5    -0.116287030465E+04   -0.14648E-03   -0.10369E-03  1622   0.458E-02    0.736E-02
RMM:   6    -0.116287021087E+04    0.93776E-04   -0.15392E-04  1600   0.189E-02    0.565E-02
RMM:   7    -0.116287017821E+04    0.32661E-04   -0.32576E-04  1571   0.203E-02    0.260E-02
RMM:   8    -0.116287017429E+04    0.39238E-05   -0.30891E-05  1610   0.905E-03    0.189E-02
RMM:   9    -0.116287016860E+04    0.56855E-05   -0.19580E-05  1545   0.578E-03    0.122E-02
RMM:  10    -0.116287016921E+04   -0.61023E-06   -0.70089E-06  1528   0.360E-03
   5 F= -.11628702E+04 E0= -.11628702E+04  d E =-.150396E-01  mag=     4.0000
       N       E                     dE             d eps       ncg     rms          rms(c)
DAV:   1    -0.116287296474E+04   -0.27961E-02   -0.30906E+00  1600   0.291E+00    0.544E-01
RMM:   2    -0.116287771785E+04   -0.47531E-02   -0.63648E-02  1638   0.423E-01    0.474E-01
RMM:   3    -0.116287702705E+04    0.69080E-03   -0.16116E-02  1623   0.186E-01    0.354E-01
RMM:   4    -0.116287536906E+04    0.16580E-02   -0.79019E-03  1606   0.119E-01    0.175E-01
RMM:   5    -0.116287531890E+04    0.50158E-04   -0.27333E-03  1622   0.731E-02    0.937E-02
RMM:   6    -0.116287523250E+04    0.86397E-04   -0.42538E-04  1720   0.320E-02    0.715E-02
RMM:   7    -0.116287521725E+04    0.15249E-04   -0.38349E-04  1596   0.214E-02    0.389E-02
RMM:   8    -0.116287521724E+04    0.12231E-07   -0.52488E-05  1763   0.104E-02    0.237E-02
RMM:   9    -0.116287520497E+04    0.12269E-04   -0.41235E-05  1557   0.809E-03    0.120E-02
RMM:  10    -0.116287520438E+04    0.59757E-06   -0.12795E-05  1584   0.470E-03    0.697E-03
RMM:  11    -0.116287520387E+04    0.50911E-06   -0.44751E-06  1288   0.266E-03
   6 F= -.11628752E+04 E0= -.11628752E+04  d E =-.503465E-02  mag=     4.0000
       N       E                     dE             d eps       ncg     rms          rms(c)
DAV:   1    -0.116287697917E+04   -0.17748E-02   -0.37637E-01  1664   0.102E+00    0.192E-01
RMM:   2    -0.116287753529E+04   -0.55613E-03   -0.77712E-03  1639   0.148E-01    0.166E-01
RMM:   3    -0.116287745064E+04    0.84649E-04   -0.19924E-03  1626   0.649E-02    0.124E-01
RMM:   4    -0.116287725228E+04    0.19836E-03   -0.89078E-04  1607   0.405E-02    0.623E-02
RMM:   5    -0.116287724661E+04    0.56734E-05   -0.34827E-04  1603   0.258E-02    0.321E-02
RMM:   6    -0.116287723829E+04    0.83174E-05   -0.53360E-05  1717   0.115E-02    0.241E-02
RMM:   7    -0.116287723775E+04    0.54172E-06   -0.46626E-05  1573   0.751E-03    0.130E-02
RMM:   8    -0.116287723823E+04   -0.47977E-06   -0.64173E-06  1495   0.360E-03
   7 F= -.11628772E+04 E0= -.11628772E+04  d E =-.706902E-02  mag=     4.0000
       N       E                     dE             d eps       ncg     rms          rms(c)
DAV:   1    -0.116287367404E+04    0.35637E-02   -0.22582E+00  1600   0.247E+00    0.367E-01
RMM:   2    -0.116288020464E+04   -0.65306E-02   -0.65478E-02  1676   0.375E-01    0.313E-01
RMM:   3    -0.116288191780E+04   -0.17132E-02   -0.18952E-02  1639   0.164E-01    0.249E-01
RMM:   4    -0.116288174645E+04    0.17135E-03   -0.36438E-03  1768   0.791E-02    0.169E-01
RMM:   5    -0.116288135499E+04    0.39146E-03   -0.17977E-03  1600   0.550E-02    0.877E-02
RMM:   6    -0.116288145829E+04   -0.10330E-03   -0.39963E-04  1745   0.302E-02    0.498E-02
RMM:   7    -0.116288147598E+04   -0.17685E-04   -0.14450E-04  1686   0.154E-02    0.308E-02
RMM:   8    -0.116288146724E+04    0.87376E-05   -0.50686E-05  1571   0.882E-03    0.167E-02
RMM:   9    -0.116288146425E+04    0.29877E-05   -0.22276E-05  1634   0.601E-03    0.105E-02
RMM:  10    -0.116288146311E+04    0.11452E-05   -0.63189E-06  1544   0.356E-03    0.628E-03
RMM:  11    -0.116288146255E+04    0.55696E-06   -0.31110E-06  1189   0.243E-03
   8 F= -.11628815E+04 E0= -.11628815E+04  d E =-.422432E-02  mag=     4.0000
       N       E                     dE             d eps       ncg     rms          rms(c)
DAV:   1    -0.116288156971E+04   -0.10661E-03   -0.13384E-01  1792   0.601E-01    0.875E-02
RMM:   2    -0.116288189721E+04   -0.32750E-03   -0.37957E-03  1675   0.910E-02    0.755E-02
RMM:   3    -0.116288196139E+04   -0.64182E-04   -0.10085E-03  1645   0.394E-02    0.612E-02
RMM:   4    -0.116288193900E+04    0.22394E-04   -0.21761E-04  1722   0.198E-02    0.381E-02
RMM:   5    -0.116288192192E+04    0.17079E-04   -0.90295E-05  1616   0.126E-02    0.208E-02
RMM:   6    -0.116288192858E+04   -0.66639E-05   -0.22863E-05  1695   0.708E-03    0.113E-02
RMM:   7    -0.116288193005E+04   -0.14632E-05   -0.79899E-06  1450   0.367E-03    0.687E-03
RMM:   8    -0.116288192970E+04    0.34575E-06   -0.31431E-06  1164   0.221E-03
   9 F= -.11628819E+04 E0= -.11628819E+04  d E =-.469147E-02  mag=     4.0000
       N       E                     dE             d eps       ncg     rms          rms(c)
DAV:   1    -0.116287328038E+04    0.86497E-02   -0.21558E+00  1632   0.235E+00    0.362E-01
RMM:   2    -0.116288288931E+04   -0.96089E-02   -0.79875E-02  1687   0.363E-01    0.292E-01
RMM:   3    -0.116288631779E+04   -0.34285E-02   -0.24557E-02  1657   0.161E-01    0.230E-01
RMM:   4    -0.116288696581E+04   -0.64802E-03   -0.36176E-03  1878   0.705E-02    0.171E-01
RMM:   5    -0.116288677767E+04    0.18814E-03   -0.95804E-04  1649   0.393E-02    0.984E-02
RMM:   6    -0.116288685530E+04   -0.77630E-04   -0.27138E-04  1736   0.234E-02    0.562E-02
RMM:   7    -0.116288691542E+04   -0.60121E-04   -0.13609E-04  1652   0.139E-02    0.244E-02
RMM:   8    -0.116288691404E+04    0.13784E-05   -0.35685E-05  1589   0.729E-03    0.154E-02
RMM:   9    -0.116288691074E+04    0.32986E-05   -0.15793E-05  1634   0.481E-03    0.108E-02
RMM:  10    -0.116288691103E+04   -0.28312E-06   -0.60266E-06  1499   0.332E-03
  10 F= -.11628869E+04 E0= -.11628869E+04  d E =-.498132E-02  mag=     4.0000
       N       E                     dE             d eps       ncg     rms          rms(c)
DAV:   1    -0.116288690623E+04    0.45150E-05   -0.56559E-03  1792   0.120E-01    0.181E-02
RMM:   2    -0.116288692502E+04   -0.18790E-04   -0.20334E-04  1690   0.186E-02    0.149E-02
RMM:   3    -0.116288693006E+04   -0.50387E-05   -0.51313E-05  1625   0.808E-03    0.120E-02
RMM:   4    -0.116288693079E+04   -0.73518E-06   -0.10705E-05  1497   0.391E-03    0.787E-03
RMM:   5    -0.116288693051E+04    0.27686E-06   -0.27029E-06  1143   0.215E-03
  11 F= -.11628869E+04 E0= -.11628869E+04  d E =-.500081E-02  mag=     4.0000
       N       E                     dE             d eps       ncg     rms          rms(c)
DAV:   1    -0.116287745710E+04    0.94737E-02   -0.18865E+00  1632   0.216E+00    0.349E-01
RMM:   2    -0.116288683723E+04   -0.93801E-02   -0.77768E-02  1700   0.347E-01    0.281E-01
RMM:   3    -0.116289027521E+04   -0.34380E-02   -0.24123E-02  1655   0.155E-01    0.223E-01
RMM:   4    -0.116289077220E+04   -0.49699E-03   -0.33948E-03  1871   0.676E-02    0.164E-01
RMM:   5    -0.116289058607E+04    0.18613E-03   -0.88756E-04  1642   0.380E-02    0.975E-02
RMM:   6    -0.116289066461E+04   -0.78532E-04   -0.27235E-04  1690   0.235E-02    0.556E-02
RMM:   7    -0.116289072202E+04   -0.57418E-04   -0.13358E-04  1671   0.138E-02    0.254E-02
RMM:   8    -0.116289071661E+04    0.54090E-05   -0.34418E-05  1575   0.739E-03    0.144E-02
RMM:   9    -0.116289071424E+04    0.23775E-05   -0.15526E-05  1612   0.489E-03    0.102E-02
RMM:  10    -0.116289071522E+04   -0.98030E-06   -0.57470E-06  1492   0.322E-03
  12 F= -.11628907E+04 E0= -.11628907E+04  d E =-.378470E-02  mag=     4.0000
       N       E                     dE             d eps       ncg     rms          rms(c)
DAV:   1    -0.116289071292E+04    0.13213E-05   -0.16309E-03  1792   0.634E-02    0.103E-02
RMM:   2    -0.116289071866E+04   -0.57481E-05   -0.62571E-05  1688   0.102E-02    0.848E-03
RMM:   3    -0.116289072017E+04   -0.15016E-05   -0.15464E-05  1373   0.449E-03    0.671E-03
RMM:   4    -0.116289072054E+04   -0.37612E-06   -0.43996E-06  1150   0.243E-03
  13 F= -.11628907E+04 E0= -.11628907E+04  d E =-.379003E-02  mag=     4.0000
       N       E                     dE             d eps       ncg     rms          rms(c)
DAV:   1    -0.116288470325E+04    0.60169E-02   -0.13411E+00  1632   0.183E+00    0.288E-01
RMM:   2    -0.116289096207E+04   -0.62588E-02   -0.53741E-02  1694   0.294E-01    0.234E-01
RMM:   3    -0.116289295403E+04   -0.19920E-02   -0.16246E-02  1649   0.130E-01    0.189E-01
RMM:   4    -0.116289315087E+04   -0.19684E-03   -0.23677E-03  1848   0.580E-02    0.136E-01
RMM:   5    -0.116289298854E+04    0.16234E-03   -0.72386E-04  1624   0.345E-02    0.810E-02
RMM:   6    -0.116289305816E+04   -0.69619E-04   -0.21825E-04  1703   0.213E-02    0.455E-02
RMM:   7    -0.116289308948E+04   -0.31322E-04   -0.10046E-04  1637   0.121E-02    0.230E-02
RMM:   8    -0.116289308538E+04    0.41010E-05   -0.26547E-05  1574   0.667E-03    0.128E-02
RMM:   9    -0.116289308345E+04    0.19322E-05   -0.14333E-05  1573   0.466E-03    0.866E-03
RMM:  10    -0.116289308439E+04   -0.94371E-06   -0.35671E-06  1235   0.266E-03
  14 F= -.11628931E+04 E0= -.11628931E+04  d E =-.236385E-02  mag=     4.0000
       N       E                     dE             d eps       ncg     rms          rms(c)
DAV:   1    -0.116289304795E+04    0.35501E-04   -0.15028E-02  1824   0.194E-01    0.293E-02
RMM:   2    -0.116289310084E+04   -0.52895E-04   -0.55677E-04  1694   0.307E-02    0.241E-02
RMM:   3    -0.116289311478E+04   -0.13934E-04   -0.14421E-04  1657   0.133E-02    0.197E-02
RMM:   4    -0.116289311527E+04   -0.49298E-06   -0.22838E-05  1738   0.610E-03    0.128E-02
RMM:   5    -0.116289311357E+04    0.16996E-05   -0.59186E-06  1454   0.330E-03    0.794E-03
RMM:   6    -0.116289311425E+04   -0.68518E-06   -0.24064E-06  1073   0.218E-03
  15 F= -.11628931E+04 E0= -.11628931E+04  d E =-.239371E-02  mag=     4.0000
