       N       E                     dE             d eps       ncg     rms          rms(c)
DAV:   1     0.474916046221E+04    0.47492E+04   -0.18156E+05  1888   0.956E+02
DAV:   2    -0.533424049124E+02   -0.48025E+04   -0.43989E+04  2432   0.216E+02
DAV:   3    -0.119488339281E+04   -0.11415E+04   -0.11344E+04  1984   0.114E+02
DAV:   4    -0.124381677861E+04   -0.48933E+02   -0.48568E+02  1984   0.315E+01
DAV:   5    -0.124512982363E+04   -0.13130E+01   -0.13091E+01  2368   0.486E+00    0.883E+01
RMM:   6    -0.123582765601E+04    0.93022E+01   -0.12514E+02  1661   0.168E+01    0.103E+02
RMM:   7    -0.122001905034E+04    0.15809E+02   -0.18860E+01  1546   0.695E+00    0.735E+01
RMM:   8    -0.120351761454E+04    0.16501E+02   -0.21269E+01  1574   0.590E+00    0.456E+01
RMM:   9    -0.118611328499E+04    0.17404E+02   -0.95622E+00  1559   0.427E+00    0.329E+01
RMM:  10    -0.117331961095E+04    0.12794E+02   -0.14052E+01  1606   0.507E+00    0.249E+01
RMM:  11    -0.116839862151E+04    0.49210E+01   -0.17003E+01  1610   0.565E+00    0.283E+01
RMM:  12    -0.116732659620E+04    0.10720E+01   -0.68862E+00  1583   0.383E+00    0.150E+01
RMM:  13    -0.116877283439E+04   -0.14462E+01   -0.33745E+00  1547   0.265E+00    0.120E+01
RMM:  14    -0.116666421520E+04    0.21086E+01   -0.20850E+00  1638   0.162E+00    0.673E+00
RMM:  15    -0.116657084068E+04    0.93375E-01   -0.26836E-01  1759   0.694E-01    0.609E+00
RMM:  16    -0.116656921596E+04    0.16247E-02   -0.36457E-02  1900   0.252E-01    0.610E+00
RMM:  17    -0.116656174434E+04    0.74716E-02   -0.51778E-03  1722   0.710E-02    0.611E+00
RMM:  18    -0.116656191598E+04   -0.17164E-03   -0.24609E-01  1968   0.614E-01    0.152E+01
RMM:  19    -0.116620831945E+04    0.35360E+00   -0.25810E-01  1809   0.652E-01    0.490E+00
RMM:  20    -0.116629608578E+04   -0.87766E-01   -0.59315E-01  2228   0.946E-01    0.538E+00
RMM:  21    -0.116629162020E+04    0.44656E-02   -0.30459E-02  1786   0.251E-01    0.325E+00
RMM:  22    -0.116627119130E+04    0.20429E-01   -0.28420E-02  1594   0.191E-01    0.954E+00
RMM:  23    -0.116624065761E+04    0.30534E-01   -0.65247E-03  1594   0.163E-01    0.106E+01
RMM:  24    -0.116617232357E+04    0.68334E-01   -0.48420E-03  1648   0.115E-01    0.497E+00
RMM:  25    -0.116615236029E+04    0.19963E-01   -0.32954E-02  2035   0.215E-01    0.373E+00
RMM:  26    -0.116638001726E+04   -0.22766E+00   -0.39570E-02  2064   0.201E-01    0.161E+01
RMM:  27    -0.116622916246E+04    0.15085E+00   -0.11236E-02  1700   0.245E-01    0.144E+01
RMM:  28    -0.116619552831E+04    0.33634E-01   -0.13209E-03  1692   0.711E-02    0.141E+01
RMM:  29    -0.116619432367E+04    0.12046E-02   -0.32417E-04  1801   0.294E-02    0.143E+01
RMM:  30    -0.116619351294E+04    0.81073E-03   -0.66351E-04  1609   0.275E-02    0.150E+01
RMM:  31    -0.116623093896E+04   -0.37426E-01   -0.94080E-04  1705   0.445E-02    0.160E+01
RMM:  32    -0.116622145030E+04    0.94887E-02   -0.56253E-04  1637   0.394E-02    0.163E+01
RMM:  33    -0.116622343805E+04   -0.19877E-02   -0.11073E-04  1576   0.196E-02    0.165E+01
RMM:  34    -0.116613606980E+04    0.87368E-01   -0.23462E-03  1881   0.423E-02    0.143E+01
RMM:  35    -0.116611024489E+04    0.25825E-01   -0.33841E-03  2332   0.738E-02    0.108E+01
RMM:  36    -0.116614960113E+04   -0.39356E-01   -0.33801E-03  2067   0.110E-01    0.107E+01
RMM:  37    -0.116618214883E+04   -0.32548E-01   -0.30154E-03  2310   0.695E-02    0.133E+01
RMM:  38    -0.116619854881E+04   -0.16400E-01   -0.16264E-03  2010   0.794E-02    0.137E+01
RMM:  39    -0.116618146011E+04    0.17089E-01   -0.30768E-04  1670   0.258E-02    0.142E+01
RMM:  40    -0.116601230362E+04    0.16916E+00   -0.96205E-03  2519   0.770E-02    0.427E+00
RMM:  41    -0.116612635544E+04   -0.11405E+00   -0.15140E-02  2596   0.216E-01    0.257E+00
RMM:  42    -0.116616698044E+04   -0.40625E-01   -0.10367E-02  2560   0.189E-01    0.233E+00
RMM:  43    -0.116616897071E+04   -0.19903E-02   -0.80114E-04  2130   0.492E-02    0.262E+00
RMM:  44    -0.116616836560E+04    0.60510E-03   -0.28134E-03  2460   0.632E-02    0.213E+00
RMM:  45    -0.116617269723E+04   -0.43316E-02   -0.10684E-03  2062   0.541E-02    0.238E+00
RMM:  46    -0.116616680660E+04    0.58906E-02   -0.94790E-04  1792   0.733E-02    0.246E+00
RMM:  47    -0.116616065310E+04    0.61535E-02   -0.18764E-04  1650   0.265E-02    0.234E+00
RMM:  48    -0.116615609595E+04    0.45572E-02   -0.11003E-03  1985   0.327E-02    0.287E+00
RMM:  49    -0.116615071479E+04    0.53812E-02   -0.19847E-03  2441   0.631E-02    0.274E+00
RMM:  50    -0.116615527970E+04   -0.45649E-02   -0.18215E-03  2332   0.838E-02    0.223E+00
RMM:  51    -0.116617612882E+04   -0.20849E-01   -0.24243E-03  2340   0.760E-02    0.222E+00
RMM:  52    -0.116617899672E+04   -0.28679E-02   -0.42175E-04  1785   0.438E-02    0.226E+00
RMM:  53    -0.116617648013E+04    0.25166E-02   -0.71670E-05  1610   0.158E-02    0.220E+00
RMM:  54    -0.116618829865E+04   -0.11819E-01   -0.20284E-03  2524   0.510E-02    0.238E+00
RMM:  55    -0.116619437073E+04   -0.60721E-02   -0.14594E-03  2404   0.423E-02    0.226E+00
RMM:  56    -0.116621311072E+04   -0.18740E-01   -0.44530E-03  2460   0.629E-02    0.517E+00
RMM:  57    -0.116618959510E+04    0.23516E-01   -0.28396E-03  2352   0.113E-01    0.395E+00
RMM:  58    -0.116619113892E+04   -0.15438E-02   -0.10253E-03  2345   0.513E-02    0.435E+00
RMM:  59    -0.116618307666E+04    0.80623E-02   -0.12988E-03  2423   0.456E-02    0.394E+00
RMM:  60    -0.116618028288E+04    0.27938E-02   -0.43998E-04  1880   0.509E-02    0.430E+00
RMM:  61    -0.116616744104E+04    0.12842E-01   -0.12004E-03  2341   0.392E-02    0.512E+00
RMM:  62    -0.116616512942E+04    0.23116E-02   -0.54885E-04  2103   0.391E-02    0.571E+00
RMM:  63    -0.116612314755E+04    0.41982E-01   -0.42513E-03  2338   0.652E-02    0.298E+00
RMM:  64    -0.116617057066E+04   -0.47423E-01   -0.23051E-03  2218   0.939E-02    0.248E+00
RMM:  65    -0.116617805719E+04   -0.74865E-02   -0.86620E-04  2018   0.412E-02    0.243E+00
RMM:  66    -0.116618676140E+04   -0.87042E-02   -0.92645E-04  2344   0.471E-02    0.283E+00
RMM:  67    -0.116618115404E+04    0.56074E-02   -0.39211E-04  1964   0.413E-02    0.284E+00
RMM:  68    -0.116617931134E+04    0.18427E-02   -0.58979E-04  2072   0.257E-02    0.339E+00
RMM:  69    -0.116617335263E+04    0.59587E-02   -0.13076E-03  2220   0.368E-02    0.348E+00
RMM:  70    -0.116617963948E+04   -0.62869E-02   -0.30901E-03  2157   0.467E-02    0.414E+00
RMM:  71    -0.116618111710E+04   -0.14776E-02   -0.53118E-03  2533   0.771E-02    0.241E+00
RMM:  72    -0.116620260529E+04   -0.21488E-01   -0.38874E-03  2418   0.837E-02    0.332E+00
RMM:  73    -0.116619534301E+04    0.72623E-02   -0.20765E-03  2120   0.470E-02    0.331E+00
RMM:  74    -0.116618976707E+04    0.55759E-02   -0.81429E-04  2094   0.344E-02    0.233E+00
RMM:  75    -0.116619880034E+04   -0.90333E-02   -0.16529E-03  2308   0.557E-02    0.230E+00
RMM:  76    -0.116620109122E+04   -0.22909E-02   -0.21646E-03  2143   0.397E-02    0.211E+00
RMM:  77    -0.116620532219E+04   -0.42310E-02   -0.13097E-03  2257   0.426E-02    0.163E+00
RMM:  78    -0.116620809703E+04   -0.27748E-02   -0.73190E-04  2048   0.325E-02    0.744E-01
RMM:  79    -0.116621490605E+04   -0.68090E-02   -0.59451E-04  1810   0.537E-02    0.758E-01
RMM:  80    -0.116621496577E+04   -0.59716E-04   -0.50763E-05  1540   0.136E-02    0.720E-01
RMM:  81    -0.116621388564E+04    0.10801E-02   -0.44507E-04  2077   0.239E-02    0.507E-01
RMM:  82    -0.116621477193E+04   -0.88629E-03   -0.20960E-04  1785   0.254E-02    0.523E-01
RMM:  83    -0.116621484741E+04   -0.75487E-04   -0.10915E-04  1745   0.173E-02    0.607E-01
RMM:  84    -0.116621435495E+04    0.49246E-03   -0.37374E-05  1461   0.899E-03    0.622E-01
RMM:  85    -0.116621430609E+04    0.48859E-04   -0.36005E-04  2041   0.233E-02    0.655E-01
RMM:  86    -0.116621694977E+04   -0.26437E-02   -0.93923E-04  2224   0.327E-02    0.134E+00
RMM:  87    -0.116621653003E+04    0.41974E-03   -0.16930E-04  1748   0.315E-02    0.128E+00
RMM:  88    -0.116621604060E+04    0.48943E-03   -0.19577E-05  1353   0.776E-03    0.121E+00
RMM:  89    -0.116621593837E+04    0.10223E-03   -0.49070E-06  1163   0.375E-03    0.114E+00
RMM:  90    -0.116621486269E+04    0.10757E-02   -0.15985E-04  1893   0.173E-02    0.548E-01
RMM:  91    -0.116621559273E+04   -0.73004E-03   -0.30757E-04  2177   0.242E-02    0.487E-01
RMM:  92    -0.116621576505E+04   -0.17232E-03   -0.13054E-04  1795   0.273E-02    0.444E-01
RMM:  93    -0.116621576605E+04   -0.10018E-05   -0.74270E-05  1859   0.105E-02    0.410E-01
RMM:  94    -0.116621590177E+04   -0.13571E-03   -0.31008E-05  1637   0.848E-03    0.414E-01
RMM:  95    -0.116621581658E+04    0.85188E-04   -0.14776E-05  1379   0.739E-03    0.394E-01
RMM:  96    -0.116621561098E+04    0.20560E-03   -0.89995E-05  1719   0.111E-02    0.310E-01
RMM:  97    -0.116621606344E+04   -0.45246E-03   -0.24458E-05  1413   0.937E-03    0.302E-01
RMM:  98    -0.116621613338E+04   -0.69945E-04   -0.52100E-06  1121   0.432E-03    0.293E-01
RMM:  99    -0.116621617856E+04   -0.45178E-04   -0.41001E-06  1090   0.353E-03    0.290E-01
RMM: 100    -0.116621615470E+04    0.23859E-04   -0.68834E-07   988   0.188E-03
   1 F= -.11732658E+04 E0= -.11732516E+04  d E =-.117327E+04  mag=    -0.0538
       N       E                     dE             d eps       ncg     rms          rms(c)
DAV:   1    -0.116600987144E+04    0.20631E+00   -0.88273E+00  1792   0.102E+01    0.383E+00
RMM:   2    -0.116639351471E+04   -0.38364E+00   -0.21529E+00  1610   0.164E+00    0.130E+01
RMM:   3    -0.116612906612E+04    0.26445E+00   -0.27100E-01  1642   0.654E-01    0.307E+00
RMM:   4    -0.116622400927E+04   -0.94943E-01   -0.42374E-02  1700   0.295E-01    0.281E+00
RMM:   5    -0.116621563519E+04    0.83741E-02   -0.85788E-03  1800   0.130E-01    0.281E+00
RMM:   6    -0.116621155352E+04    0.40817E-02   -0.16770E-03  1886   0.456E-02    0.280E+00
RMM:   7    -0.116620557152E+04    0.59820E-02   -0.75578E-04  1576   0.327E-02    0.239E+00
RMM:   8    -0.116620649685E+04   -0.92532E-03   -0.38671E-03  1616   0.730E-02    0.104E+00
RMM:   9    -0.116621784523E+04   -0.11348E-01   -0.39140E-03  1638   0.107E-01    0.207E+00
RMM:  10    -0.116621431658E+04    0.35287E-02   -0.30877E-03  1712   0.852E-02    0.119E+00
RMM:  11    -0.116621682074E+04   -0.25042E-02   -0.46723E-04  1667   0.377E-02    0.131E+00
RMM:  12    -0.116621591069E+04    0.91005E-03   -0.14963E-04  1721   0.204E-02    0.113E+00
RMM:  13    -0.116621659932E+04   -0.68863E-03   -0.10229E-04  1548   0.150E-02    0.120E+00
RMM:  14    -0.116621612367E+04    0.47565E-03   -0.73114E-04  1960   0.329E-02    0.644E-01
RMM:  15    -0.116621997359E+04   -0.38499E-02   -0.59700E-04  1844   0.401E-02    0.100E+00
RMM:  16    -0.116622038629E+04   -0.41270E-03   -0.24066E-04  1675   0.225E-02    0.128E+00
RMM:  17    -0.116621917692E+04    0.12094E-02   -0.96928E-05  1573   0.198E-02    0.130E+00
RMM:  18    -0.116622082058E+04   -0.16437E-02   -0.14123E-03  2213   0.469E-02    0.106E+00
RMM:  19    -0.116622155026E+04   -0.72968E-03   -0.17591E-04  1682   0.238E-02    0.104E+00
RMM:  20    -0.116622186457E+04   -0.31432E-03   -0.93361E-05  1709   0.126E-02    0.103E+00
RMM:  21    -0.116622225885E+04   -0.39427E-03   -0.49898E-05  1610   0.877E-03    0.985E-01
RMM:  22    -0.116622181015E+04    0.44870E-03   -0.36522E-05  1521   0.983E-03    0.954E-01
RMM:  23    -0.116622282941E+04   -0.10193E-02   -0.44605E-03  2571   0.768E-02    0.636E-01
RMM:  24    -0.116622144688E+04    0.13825E-02   -0.24377E-03  2420   0.796E-02    0.579E-01
RMM:  25    -0.116622271563E+04   -0.12687E-02   -0.12872E-04  1868   0.217E-02    0.579E-01
RMM:  26    -0.116622218061E+04    0.53501E-03   -0.13621E-04  1943   0.130E-02    0.489E-01
RMM:  27    -0.116621799176E+04    0.41889E-02   -0.24018E-03  2521   0.517E-02    0.477E-01
RMM:  28    -0.116622092739E+04   -0.29356E-02   -0.34347E-04  2056   0.353E-02    0.458E-01
RMM:  29    -0.116622150286E+04   -0.57548E-03   -0.61717E-05  1698   0.115E-02    0.458E-01
RMM:  30    -0.116622159616E+04   -0.93293E-04   -0.11252E-04  1843   0.135E-02    0.575E-01
RMM:  31    -0.116622114275E+04    0.45341E-03   -0.24633E-05  1386   0.834E-03    0.546E-01
RMM:  32    -0.116622234936E+04   -0.12066E-02   -0.34548E-04  2000   0.222E-02    0.503E-01
RMM:  33    -0.116621701840E+04    0.53310E-02   -0.25763E-03  2476   0.662E-02    0.416E-01
RMM:  34    -0.116621546781E+04    0.15506E-02   -0.18620E-03  2397   0.409E-02    0.647E-01
RMM:  35    -0.116621878215E+04   -0.33143E-02   -0.90437E-04  2370   0.545E-02    0.743E-01
RMM:  36    -0.116621838854E+04    0.39361E-03   -0.12241E-04  1843   0.153E-02    0.906E-01
RMM:  37    -0.116621667960E+04    0.17089E-02   -0.57370E-04  2208   0.301E-02    0.111E+00
RMM:  38    -0.116621620223E+04    0.47737E-03   -0.42849E-04  2049   0.208E-02    0.156E+00
RMM:  39    -0.116621455792E+04    0.16443E-02   -0.56248E-04  2219   0.290E-02    0.180E+00
RMM:  40    -0.116621336030E+04    0.11976E-02   -0.22845E-04  1866   0.279E-02    0.155E+00
RMM:  41    -0.116621419157E+04   -0.83127E-03   -0.20280E-05  1293   0.759E-03    0.160E+00
RMM:  42    -0.116621344553E+04    0.74605E-03   -0.80822E-04  2299   0.326E-02    0.537E-01
RMM:  43    -0.116621697220E+04   -0.35267E-02   -0.51361E-04  2189   0.419E-02    0.414E-01
RMM:  44    -0.116621799885E+04   -0.10267E-02   -0.53277E-04  2291   0.261E-02    0.456E-01
RMM:  45    -0.116621898682E+04   -0.98796E-03   -0.15561E-03  2491   0.431E-02    0.926E-01
RMM:  46    -0.116621858700E+04    0.39982E-03   -0.23723E-04  1913   0.317E-02    0.933E-01
RMM:  47    -0.116621962791E+04   -0.10409E-02   -0.20196E-03  2428   0.476E-02    0.139E+00
RMM:  48    -0.116621863861E+04    0.98929E-03   -0.30682E-04  1905   0.328E-02    0.137E+00
RMM:  49    -0.116621811572E+04    0.52290E-03   -0.30877E-05  1438   0.986E-03    0.137E+00
RMM:  50    -0.116621810226E+04    0.13458E-04   -0.30495E-06  1062   0.271E-03    0.138E+00
RMM:  51    -0.116621818251E+04   -0.80251E-04   -0.60245E-06  1135   0.328E-03    0.137E+00
RMM:  52    -0.116621695222E+04    0.12303E-02   -0.82755E-04  2325   0.323E-02    0.942E-01
RMM:  53    -0.116621455305E+04    0.23992E-02   -0.22667E-03  2447   0.495E-02    0.808E-01
RMM:  54    -0.116621634094E+04   -0.17879E-02   -0.46885E-04  2085   0.273E-02    0.813E-01
RMM:  55    -0.116621641886E+04   -0.77918E-04   -0.11944E-04  1772   0.129E-02    0.736E-01
RMM:  56    -0.116621706207E+04   -0.64321E-03   -0.42974E-05  1509   0.113E-02    0.735E-01
RMM:  57    -0.116621718223E+04   -0.12016E-03   -0.34616E-05  1373   0.610E-03    0.724E-01
RMM:  58    -0.116621740425E+04   -0.22202E-03   -0.46386E-05  1450   0.707E-03    0.749E-01
RMM:  59    -0.116621749274E+04   -0.88488E-04   -0.57207E-05  1441   0.758E-03    0.740E-01
RMM:  60    -0.116621704142E+04    0.45132E-03   -0.18241E-04  1919   0.145E-02    0.606E-01
RMM:  61    -0.116621762682E+04   -0.58540E-03   -0.27160E-04  1927   0.174E-02    0.637E-01
RMM:  62    -0.116621746846E+04    0.15835E-03   -0.16841E-04  1742   0.179E-02    0.613E-01
RMM:  63    -0.116621737434E+04    0.94119E-04   -0.91181E-05  1707   0.132E-02    0.553E-01
RMM:  64    -0.116621684128E+04    0.53306E-03   -0.20991E-04  1955   0.180E-02    0.417E-01
RMM:  65    -0.116621688669E+04   -0.45410E-04   -0.29355E-04  1942   0.191E-02    0.464E-01
RMM:  66    -0.116621725313E+04   -0.36643E-03   -0.21110E-05  1328   0.799E-03    0.459E-01
RMM:  67    -0.116621710693E+04    0.14620E-03   -0.23963E-05  1312   0.518E-03    0.449E-01
RMM:  68    -0.116621748942E+04   -0.38249E-03   -0.56846E-05  1587   0.117E-02    0.503E-01
RMM:  69    -0.116621743414E+04    0.55276E-04   -0.45073E-05  1433   0.958E-03    0.513E-01
RMM:  70    -0.116621753848E+04   -0.10433E-03   -0.16166E-04  1754   0.134E-02    0.515E-01
RMM:  71    -0.116621740150E+04    0.13698E-03   -0.13133E-04  1726   0.109E-02    0.475E-01
RMM:  72    -0.116621725509E+04    0.14641E-03   -0.29063E-04  2010   0.161E-02    0.352E-01
RMM:  73    -0.116621786476E+04   -0.60967E-03   -0.72613E-05  1532   0.127E-02    0.355E-01
RMM:  74    -0.116621787434E+04   -0.95779E-05   -0.26765E-05  1325   0.858E-03    0.316E-01
RMM:  75    -0.116621784971E+04    0.24628E-04   -0.25261E-05  1209   0.489E-03    0.306E-01
RMM:  76    -0.116621767644E+04    0.17326E-03   -0.86178E-05  1500   0.836E-03    0.291E-01
RMM:  77    -0.116621785706E+04   -0.18062E-03   -0.41579E-05  1396   0.898E-03    0.331E-01
RMM:  78    -0.116621692590E+04    0.93116E-03   -0.81390E-04  2203   0.303E-02    0.382E-01
RMM:  79    -0.116621683972E+04    0.86177E-04   -0.22973E-04  1802   0.134E-02    0.475E-01
RMM:  80    -0.116621676036E+04    0.79359E-04   -0.35057E-05  1305   0.551E-03    0.507E-01
RMM:  81    -0.116621671208E+04    0.48284E-04   -0.64446E-06  1099   0.299E-03    0.524E-01
RMM:  82    -0.116621713008E+04   -0.41800E-03   -0.36437E-04  1926   0.203E-02    0.354E-01
RMM:  83    -0.116621781465E+04   -0.68457E-03   -0.61525E-04  2080   0.240E-02    0.219E-01
RMM:  84    -0.116621808042E+04   -0.26576E-03   -0.32118E-04  1887   0.147E-02    0.247E-01
RMM:  85    -0.116621812095E+04   -0.40535E-04   -0.45071E-05  1424   0.801E-03    0.271E-01
RMM:  86    -0.116621815492E+04   -0.33968E-04   -0.12762E-05  1202   0.515E-03    0.298E-01
RMM:  87    -0.116621848541E+04   -0.33049E-03   -0.14477E-04  1683   0.111E-02    0.487E-01
RMM:  88    -0.116621849503E+04   -0.96235E-05   -0.43363E-05  1440   0.938E-03    0.587E-01
RMM:  89    -0.116621818499E+04    0.31005E-03   -0.10342E-05  1252   0.738E-03    0.535E-01
RMM:  90    -0.116621800857E+04    0.17642E-03   -0.17410E-05  1153   0.440E-03    0.447E-01
RMM:  91    -0.116621809052E+04   -0.81951E-04   -0.65308E-06  1099   0.351E-03    0.418E-01
RMM:  92    -0.116621845634E+04   -0.36581E-03   -0.60178E-05  1465   0.907E-03    0.579E-01
RMM:  93    -0.116621782127E+04    0.63506E-03   -0.69624E-05  1516   0.123E-02    0.412E-01
RMM:  94    -0.116621793133E+04   -0.11005E-03   -0.17828E-05  1188   0.529E-03    0.369E-01
RMM:  95    -0.116621803300E+04   -0.10167E-03   -0.32815E-06  1056   0.375E-03    0.361E-01
RMM:  96    -0.116621803282E+04    0.17736E-06   -0.23062E-06  1014   0.204E-03
   2 F= -.11732683E+04 E0= -.11732547E+04  d E =-.250623E-02  mag=    -0.0191
       N       E                     dE             d eps       ncg     rms          rms(c)
DAV:   1    -0.116618288228E+04    0.35151E-01   -0.18074E+00  1792   0.464E+00    0.299E+00
RMM:   2    -0.116630206165E+04   -0.11918E+00   -0.49097E-01  1588   0.757E-01    0.519E+00
RMM:   3    -0.116620941960E+04    0.92642E-01   -0.63278E-02  1638   0.319E-01    0.790E-01
RMM:   4    -0.116622593529E+04   -0.16516E-01   -0.79423E-03  1734   0.114E-01    0.241E+00
RMM:   5    -0.116621734568E+04    0.85896E-02   -0.36274E-03  1602   0.946E-02    0.263E+00
RMM:   6    -0.116621269646E+04    0.46492E-02   -0.56009E-04  1590   0.450E-02    0.149E+00
RMM:   7    -0.116621907314E+04   -0.63767E-02   -0.37788E-04  1583   0.307E-02    0.173E+00
RMM:   8    -0.116621741641E+04    0.16567E-02   -0.18985E-04  1613   0.169E-02    0.123E+00
RMM:   9    -0.116621989637E+04   -0.24800E-02   -0.11809E-03  1979   0.469E-02    0.417E-01
RMM:  10    -0.116622329714E+04   -0.34008E-02   -0.11052E-03  2000   0.486E-02    0.319E-01
RMM:  11    -0.116622375475E+04   -0.45761E-03   -0.27125E-04  1652   0.241E-02    0.252E-01
RMM:  12    -0.116622402427E+04   -0.26953E-03   -0.80078E-05  1649   0.129E-02    0.310E-01
RMM:  13    -0.116622393527E+04    0.89003E-04   -0.25044E-04  1754   0.196E-02    0.278E-01
RMM:  14    -0.116622417209E+04   -0.23681E-03   -0.59567E-05  1606   0.919E-03    0.303E-01
RMM:  15    -0.116622412611E+04    0.45977E-04   -0.28585E-05  1490   0.776E-03    0.266E-01
RMM:  16    -0.116622412431E+04    0.17935E-05   -0.11201E-04  1757   0.127E-02    0.226E-01
RMM:  17    -0.116622418351E+04   -0.59191E-04   -0.20316E-04  2136   0.157E-02    0.240E-01
RMM:  18    -0.116622445704E+04   -0.27353E-03   -0.92973E-05  1813   0.134E-02    0.442E-01
RMM:  19    -0.116622416362E+04    0.29342E-03   -0.41227E-05  1591   0.121E-02    0.365E-01
RMM:  20    -0.116622416565E+04   -0.20347E-05   -0.43165E-06  1147   0.472E-03    0.363E-01
RMM:  21    -0.116622416409E+04    0.15626E-05   -0.42963E-06  1104   0.334E-03    0.366E-01
RMM:  22    -0.116622416238E+04    0.17076E-05   -0.11034E-05  1259   0.439E-03    0.379E-01
RMM:  23    -0.116622414156E+04    0.20825E-04   -0.11298E-05  1127   0.363E-03    0.391E-01
RMM:  24    -0.116622388348E+04    0.25807E-03   -0.15140E-04  2054   0.129E-02    0.337E-01
RMM:  25    -0.116622400633E+04   -0.12285E-03   -0.61429E-05  1794   0.107E-02    0.345E-01
RMM:  26    -0.116622349249E+04    0.51384E-03   -0.53624E-04  2154   0.213E-02    0.310E-01
RMM:  27    -0.116622393928E+04   -0.44678E-03   -0.45265E-05  1400   0.998E-03    0.279E-01
RMM:  28    -0.116622410766E+04   -0.16838E-03   -0.42515E-05  1457   0.793E-03    0.222E-01
RMM:  29    -0.116622434835E+04   -0.24070E-03   -0.16453E-04  1939   0.136E-02    0.164E-01
RMM:  30    -0.116622455157E+04   -0.20322E-03   -0.10120E-04  1618   0.977E-03    0.212E-01
RMM:  31    -0.116622492551E+04   -0.37394E-03   -0.31201E-04  2002   0.156E-02    0.453E-01
RMM:  32    -0.116622463692E+04    0.28859E-03   -0.42599E-05  1507   0.150E-02    0.390E-01
RMM:  33    -0.116622429589E+04    0.34103E-03   -0.85066E-05  1511   0.101E-02    0.258E-01
RMM:  34    -0.116622420208E+04    0.93804E-04   -0.14508E-04  1632   0.101E-02    0.183E-01
RMM:  35    -0.116622417281E+04    0.29275E-04   -0.13662E-04  1636   0.989E-03    0.174E-01
RMM:  36    -0.116622414404E+04    0.28773E-04   -0.79060E-05  1483   0.763E-03    0.196E-01
RMM:  37    -0.116622442334E+04   -0.27931E-03   -0.97755E-05  1536   0.119E-02    0.169E-01
RMM:  38    -0.116622438669E+04    0.36653E-04   -0.33127E-06  1035   0.300E-03    0.169E-01
RMM:  39    -0.116622441052E+04   -0.23827E-04   -0.26984E-06   998   0.155E-03    0.169E-01
RMM:  40    -0.116622440572E+04    0.48000E-05   -0.65405E-07   947   0.121E-03    0.172E-01
RMM:  41    -0.116622430063E+04    0.10509E-03   -0.22255E-05  1167   0.483E-03    0.180E-01
RMM:  42    -0.116622444610E+04   -0.14547E-03   -0.26854E-05  1234   0.632E-03    0.172E-01
RMM:  43    -0.116622467165E+04   -0.22555E-03   -0.33383E-04  1874   0.172E-02    0.262E-01
RMM:  44    -0.116622475639E+04   -0.84742E-04   -0.57300E-05  1430   0.904E-03    0.316E-01
RMM:  45    -0.116622458495E+04    0.17144E-03   -0.95185E-06  1200   0.654E-03    0.284E-01
RMM:  46    -0.116622430747E+04    0.27748E-03   -0.96057E-05  1500   0.972E-03    0.192E-01
RMM:  47    -0.116622413041E+04    0.17706E-03   -0.21626E-04  1738   0.120E-02    0.170E-01
RMM:  48    -0.116622336703E+04    0.76338E-03   -0.92649E-04  2225   0.262E-02    0.361E-01
RMM:  49    -0.116622311668E+04    0.25035E-03   -0.27774E-04  1826   0.126E-02    0.475E-01
RMM:  50    -0.116622314448E+04   -0.27804E-04   -0.21238E-05  1215   0.453E-03    0.492E-01
RMM:  51    -0.116622314889E+04   -0.44052E-05   -0.19394E-06  1034   0.205E-03    0.495E-01
RMM:  52    -0.116622293469E+04    0.21419E-03   -0.20617E-05  1212   0.439E-03    0.536E-01
RMM:  53    -0.116622285763E+04    0.77066E-04   -0.65689E-06  1094   0.249E-03    0.552E-01
RMM:  54    -0.116622286691E+04   -0.92764E-05   -0.55010E-07   981   0.122E-03    0.553E-01
RMM:  55    -0.116622291890E+04   -0.51996E-04   -0.77032E-07   938   0.114E-03    0.544E-01
RMM:  56    -0.116622287347E+04    0.45431E-04   -0.55508E-07   848   0.915E-04    0.551E-01
RMM:  57    -0.116622306327E+04   -0.18980E-03   -0.12366E-05  1106   0.362E-03    0.517E-01
RMM:  58    -0.116622307231E+04   -0.90360E-05   -0.12117E-06   910   0.122E-03    0.514E-01
RMM:  59    -0.116622304184E+04    0.30466E-04   -0.37454E-07   811   0.896E-04    0.520E-01
RMM:  60    -0.116622322401E+04   -0.18217E-03   -0.12388E-05  1117   0.368E-03    0.486E-01
RMM:  61    -0.116622323396E+04   -0.99530E-05   -0.15238E-06   959   0.143E-03    0.483E-01
RMM:  62    -0.116622326164E+04   -0.27679E-04   -0.65680E-07   881   0.102E-03    0.478E-01
RMM:  63    -0.116622326090E+04    0.74687E-06   -0.10551E-07   658   0.543E-04
   3 F= -.11732732E+04 E0= -.11732611E+04  d E =-.744737E-02  mag=     0.0815
       N       E                     dE             d eps       ncg     rms          rms(c)
DAV:   1    -0.116608378749E+04    0.13947E+00   -0.45684E+00  1920   0.779E+00    0.247E+00
RMM:   2    -0.116630623330E+04   -0.22245E+00   -0.14352E+00  1591   0.118E+00    0.106E+01
RMM:   3    -0.116615885197E+04    0.14738E+00   -0.17613E-01  1604   0.466E-01    0.217E+00
RMM:   4    -0.116623455510E+04   -0.75703E-01   -0.14679E-02  1654   0.202E-01    0.223E+00
RMM:   5    -0.116622791132E+04    0.66438E-02   -0.32373E-03  1674   0.100E-01    0.209E+00
RMM:   6    -0.116622384601E+04    0.40653E-02   -0.13796E-03  1617   0.401E-02    0.111E+00
RMM:   7    -0.116622923271E+04   -0.53867E-02   -0.15880E-03  1595   0.663E-02    0.106E+00
RMM:   8    -0.116623109733E+04   -0.18646E-02   -0.18342E-03  1644   0.552E-02    0.630E-01
RMM:   9    -0.116623194534E+04   -0.84801E-03   -0.33376E-04  1566   0.391E-02    0.491E-01
RMM:  10    -0.116623157928E+04    0.36606E-03   -0.29859E-04  1616   0.239E-02    0.392E-01
RMM:  11    -0.116623227014E+04   -0.69086E-03   -0.99846E-04  1849   0.464E-02    0.103E+00
RMM:  12    -0.116623065157E+04    0.16186E-02   -0.54868E-04  1638   0.458E-02    0.594E-01
RMM:  13    -0.116623196284E+04   -0.13113E-02   -0.28042E-04  1656   0.277E-02    0.963E-01
RMM:  14    -0.116623130053E+04    0.66231E-03   -0.74908E-05  1550   0.180E-02    0.969E-01
RMM:  15    -0.116623101054E+04    0.28999E-03   -0.12006E-05  1352   0.740E-03    0.977E-01
RMM:  16    -0.116623094207E+04    0.68474E-04   -0.43062E-06  1163   0.337E-03    0.103E+00
RMM:  17    -0.116623080124E+04    0.14082E-03   -0.21102E-06  1067   0.336E-03    0.103E+00
RMM:  18    -0.116623078401E+04    0.17235E-04   -0.65175E-07  1021   0.160E-03    0.102E+00
RMM:  19    -0.116623043545E+04    0.34855E-03   -0.66009E-05  1660   0.952E-03    0.864E-01
RMM:  20    -0.116623089895E+04   -0.46349E-03   -0.29914E-05  1436   0.760E-03    0.772E-01
RMM:  21    -0.116623123925E+04   -0.34030E-03   -0.79881E-05  1719   0.130E-02    0.973E-01
RMM:  22    -0.116623082662E+04    0.41263E-03   -0.11138E-04  1897   0.142E-02    0.111E+00
RMM:  23    -0.116622946291E+04    0.13637E-02   -0.67719E-04  2389   0.277E-02    0.458E-01
RMM:  24    -0.116623104633E+04   -0.15834E-02   -0.24132E-04  2015   0.254E-02    0.197E-01
RMM:  25    -0.116623162719E+04   -0.58086E-03   -0.29556E-04  2110   0.231E-02    0.215E-01
RMM:  26    -0.116623184979E+04   -0.22260E-03   -0.71653E-05  1684   0.180E-02    0.103E-01
RMM:  27    -0.116623184797E+04    0.18229E-05   -0.36824E-05  1590   0.922E-03    0.190E-01
RMM:  28    -0.116623173848E+04    0.10949E-03   -0.31421E-05  1422   0.689E-03    0.175E-01
RMM:  29    -0.116623161654E+04    0.12194E-03   -0.85882E-05  1873   0.119E-02    0.129E-01
RMM:  30    -0.116623189396E+04   -0.27742E-03   -0.41176E-05  1597   0.132E-02    0.776E-02
RMM:  31    -0.116623193361E+04   -0.39644E-04   -0.10143E-05  1323   0.674E-03    0.439E-02
RMM:  32    -0.116623194096E+04   -0.73548E-05   -0.57529E-06  1178   0.424E-03    0.552E-02
RMM:  33    -0.116623195040E+04   -0.94425E-05   -0.26376E-06  1067   0.324E-03    0.445E-02
RMM:  34    -0.116623194384E+04    0.65692E-05   -0.23831E-06  1034   0.221E-03    0.894E-03
RMM:  35    -0.116623195667E+04   -0.12837E-04   -0.10094E-06   997   0.200E-03    0.711E-03
RMM:  36    -0.116623195905E+04   -0.23758E-05   -0.32422E-07   964   0.130E-03    0.689E-03
RMM:  37    -0.116623195868E+04    0.37179E-06   -0.14900E-07   914   0.839E-04
   4 F= -.11732820E+04 E0= -.11732679E+04  d E =-.879598E-02  mag=     0.1671
       N       E                     dE             d eps       ncg     rms          rms(c)
DAV:   1    -0.116619442808E+04    0.37531E-01   -0.11861E+00  1824   0.401E+00    0.145E+00
RMM:   2    -0.116626199928E+04   -0.67571E-01   -0.37774E-01  1581   0.612E-01    0.717E+00
RMM:   3    -0.116619985175E+04    0.62148E-01   -0.47638E-02  1594   0.272E-01    0.135E+00
RMM:   4    -0.116623262034E+04   -0.32769E-01   -0.52635E-03  1638   0.128E-01    0.136E+00
RMM:   5    -0.116623010068E+04    0.25197E-02   -0.98595E-04  1636   0.659E-02    0.130E+00
RMM:   6    -0.116622890302E+04    0.11977E-02   -0.24192E-04  1615   0.230E-02    0.972E-01
RMM:   7    -0.116623019620E+04   -0.12932E-02   -0.10087E-04  1557   0.156E-02    0.104E+00
RMM:   8    -0.116622943883E+04    0.75737E-03   -0.58806E-05  1567   0.144E-02    0.937E-01
RMM:   9    -0.116623041688E+04   -0.97804E-03   -0.54767E-04  2052   0.304E-02    0.504E-01
RMM:  10    -0.116623168426E+04   -0.12674E-02   -0.20786E-04  1732   0.245E-02    0.148E-01
RMM:  11    -0.116623244922E+04   -0.76496E-03   -0.78336E-05  1588   0.208E-02    0.113E-01
RMM:  12    -0.116623291671E+04   -0.46749E-03   -0.10953E-04  1680   0.160E-02    0.211E-01
RMM:  13    -0.116623290439E+04    0.12321E-04   -0.26418E-05  1559   0.124E-02    0.110E-01
RMM:  14    -0.116623288430E+04    0.20091E-04   -0.55535E-05  1615   0.104E-02    0.168E-01
RMM:  15    -0.116623292579E+04   -0.41488E-04   -0.19980E-05  1438   0.118E-02    0.111E-01
RMM:  16    -0.116623294959E+04   -0.23808E-04   -0.27464E-06  1077   0.322E-03    0.106E-01
RMM:  17    -0.116623295417E+04   -0.45741E-05   -0.56371E-07   992   0.161E-03    0.106E-01
RMM:  18    -0.116623293030E+04    0.23871E-04   -0.12464E-05  1292   0.490E-03    0.125E-01
RMM:  19    -0.116623285295E+04    0.77342E-04   -0.23948E-05  1399   0.637E-03    0.105E-01
RMM:  20    -0.116623296279E+04   -0.10983E-03   -0.16078E-05  1399   0.662E-03    0.885E-02
RMM:  21    -0.116623300357E+04   -0.40783E-04   -0.33210E-06  1079   0.410E-03    0.594E-02
RMM:  22    -0.116623300497E+04   -0.14031E-05   -0.87272E-06  1140   0.379E-03    0.640E-02
RMM:  23    -0.116623301232E+04   -0.73507E-05   -0.22699E-06  1018   0.212E-03    0.594E-02
RMM:  24    -0.116623301150E+04    0.82143E-06   -0.69661E-06  1200   0.369E-03
   5 F= -.11732831E+04 E0= -.11732692E+04  d E =-.988086E-02  mag=     0.1644
       N       E                     dE             d eps       ncg     rms          rms(c)
DAV:   1    -0.116609048879E+04    0.14252E+00   -0.46798E+00  1984   0.785E+00    0.222E+00
RMM:   2    -0.116631115741E+04   -0.22067E+00   -0.14312E+00  1565   0.117E+00    0.112E+01
RMM:   3    -0.116615778918E+04    0.15337E+00   -0.16840E-01  1587   0.457E-01    0.150E+00
RMM:   4    -0.116623579126E+04   -0.78002E-01   -0.17306E-02  1686   0.196E-01    0.148E+00
RMM:   5    -0.116623396949E+04    0.18218E-02   -0.26889E-03  1708   0.934E-02    0.146E+00
RMM:   6    -0.116623200845E+04    0.19610E-02   -0.57725E-04  1711   0.357E-02    0.118E+00
RMM:   7    -0.116623210283E+04   -0.94385E-04   -0.28649E-04  1568   0.189E-02    0.810E-01
RMM:   8    -0.116623555309E+04   -0.34503E-02   -0.15110E-03  1831   0.510E-02    0.739E-01
RMM:   9    -0.116623586308E+04   -0.30999E-03   -0.13179E-04  1613   0.234E-02    0.852E-01
RMM:  10    -0.116623579061E+04    0.72469E-04   -0.89529E-04  1864   0.402E-02    0.371E-01
RMM:  11    -0.116623787458E+04   -0.20840E-02   -0.41491E-04  1665   0.370E-02    0.313E-01
RMM:  12    -0.116623797476E+04   -0.10019E-03   -0.44015E-05  1623   0.129E-02    0.278E-01
RMM:  13    -0.116623853724E+04   -0.56247E-03   -0.99827E-05  1602   0.124E-02    0.228E-01
RMM:  14    -0.116623854764E+04   -0.10400E-04   -0.98836E-05  1603   0.129E-02    0.248E-01
RMM:  15    -0.116623870219E+04   -0.15455E-03   -0.10962E-04  1808   0.168E-02    0.195E-01
RMM:  16    -0.116623902598E+04   -0.32379E-03   -0.64622E-05  1688   0.118E-02    0.168E-01
RMM:  17    -0.116623900943E+04    0.16547E-04   -0.66692E-06  1246   0.450E-03    0.168E-01
RMM:  18    -0.116623899679E+04    0.12644E-04   -0.23152E-06  1077   0.242E-03    0.139E-01
RMM:  19    -0.116623906286E+04   -0.66072E-04   -0.69152E-05  2228   0.990E-03    0.148E-01
RMM:  20    -0.116623906163E+04    0.12268E-05   -0.26678E-05  1877   0.617E-03    0.130E-01
RMM:  21    -0.116623916928E+04   -0.10765E-03   -0.25328E-04  2573   0.194E-02    0.219E-01
RMM:  22    -0.116623915758E+04    0.11703E-04   -0.11917E-04  2404   0.133E-02    0.220E-01
RMM:  23    -0.116623928052E+04   -0.12294E-03   -0.51785E-05  2071   0.936E-03    0.253E-01
RMM:  24    -0.116623929558E+04   -0.15059E-04   -0.40190E-06  1164   0.371E-03    0.251E-01
RMM:  25    -0.116623931470E+04   -0.19118E-04   -0.31665E-05  1954   0.711E-03    0.277E-01
RMM:  26    -0.116623936469E+04   -0.49993E-04   -0.10642E-04  2434   0.125E-02    0.329E-01
RMM:  27    -0.116623940566E+04   -0.40970E-04   -0.88815E-05  2293   0.109E-02    0.372E-01
RMM:  28    -0.116623951414E+04   -0.10848E-03   -0.15066E-04  2496   0.142E-02    0.430E-01
RMM:  29    -0.116623958924E+04   -0.75107E-04   -0.51289E-05  2114   0.827E-03    0.460E-01
RMM:  30    -0.116623966237E+04   -0.73128E-04   -0.60244E-05  2305   0.906E-03    0.496E-01
RMM:  31    -0.116623972206E+04   -0.59684E-04   -0.46455E-05  2097   0.789E-03    0.525E-01
RMM:  32    -0.116623978978E+04   -0.67724E-04   -0.41876E-05  2148   0.758E-03    0.556E-01
RMM:  33    -0.116623986314E+04   -0.73364E-04   -0.37643E-05  2041   0.723E-03    0.587E-01
RMM:  34    -0.116623983615E+04    0.26988E-04   -0.26572E-06  1097   0.299E-03    0.580E-01
RMM:  35    -0.116623983792E+04   -0.17640E-05   -0.25139E-07  1006   0.104E-03    0.580E-01
RMM:  36    -0.116623983839E+04   -0.46831E-06   -0.80583E-08   876   0.520E-04
   6 F= -.11732904E+04 E0= -.11732781E+04  d E =-.730929E-02  mag=     0.1174
       N       E                     dE             d eps       ncg     rms          rms(c)
DAV:   1    -0.116622552345E+04    0.14314E-01   -0.45505E-01  1984   0.246E+00    0.976E-01
RMM:   2    -0.116625827718E+04   -0.32754E-01   -0.14488E-01  1573   0.370E-01    0.609E+00
RMM:   3    -0.116621449184E+04    0.43785E-01   -0.18160E-02  1599   0.188E-01    0.932E-01
RMM:   4    -0.116623664727E+04   -0.22155E-01   -0.32650E-03  1625   0.936E-02    0.109E+00
RMM:   5    -0.116623808559E+04   -0.14383E-02   -0.72963E-04  1888   0.426E-02    0.110E+00
RMM:   6    -0.116623818278E+04   -0.97195E-04   -0.14998E-04  1692   0.135E-02    0.110E+00
RMM:   7    -0.116623831217E+04   -0.12939E-03   -0.94904E-05  1583   0.115E-02    0.117E+00
RMM:   8    -0.116623861797E+04   -0.30580E-03   -0.14830E-04  1598   0.144E-02    0.139E+00
RMM:   9    -0.116623818145E+04    0.43652E-03   -0.86792E-03  2598   0.103E-01    0.135E+00
RMM:  10    -0.116623812506E+04    0.56399E-04   -0.44662E-04  2042   0.302E-02    0.106E+00
RMM:  11    -0.116623813609E+04   -0.11031E-04   -0.13620E-03  2310   0.416E-02    0.616E-01
RMM:  12    -0.116623795914E+04    0.17695E-03   -0.48646E-04  1897   0.301E-02    0.599E-01
RMM:  13    -0.116623817622E+04   -0.21708E-03   -0.82990E-04  2238   0.318E-02    0.592E-01
RMM:  14    -0.116623853585E+04   -0.35963E-03   -0.23054E-04  1877   0.194E-02    0.452E-01
RMM:  15    -0.116623849648E+04    0.39365E-04   -0.98554E-05  1633   0.141E-02    0.413E-01
RMM:  16    -0.116623848012E+04    0.16359E-04   -0.15275E-04  1878   0.149E-02    0.265E-01
RMM:  17    -0.116623877221E+04   -0.29209E-03   -0.10904E-04  1700   0.146E-02    0.114E-01
RMM:  18    -0.116623898136E+04   -0.20915E-03   -0.41562E-05  1615   0.103E-02    0.103E-01
RMM:  19    -0.116623895495E+04    0.26406E-04   -0.12971E-05  1497   0.641E-03    0.103E-01
RMM:  20    -0.116623885968E+04    0.95274E-04   -0.22381E-05  1612   0.640E-03    0.993E-02
RMM:  21    -0.116623874717E+04    0.11251E-03   -0.78181E-05  1948   0.101E-02    0.846E-02
RMM:  22    -0.116623885980E+04   -0.11263E-03   -0.28524E-05  1706   0.762E-03    0.641E-02
RMM:  23    -0.116623892434E+04   -0.64547E-04   -0.27814E-05  1785   0.760E-03    0.639E-02
RMM:  24    -0.116623894421E+04   -0.19870E-04   -0.61136E-06  1332   0.406E-03    0.455E-02
RMM:  25    -0.116623895228E+04   -0.80652E-05   -0.51224E-06  1335   0.326E-03    0.322E-02
RMM:  26    -0.116623895668E+04   -0.43998E-05   -0.14493E-06  1022   0.220E-03    0.287E-02
RMM:  27    -0.116623895496E+04    0.17185E-05   -0.39157E-06  1170   0.283E-03    0.116E-02
RMM:  28    -0.116623895921E+04   -0.42505E-05   -0.93238E-07  1001   0.195E-03    0.708E-03
RMM:  29    -0.116623895963E+04   -0.41362E-06   -0.81904E-07   991   0.153E-03
   7 F= -.11732897E+04 E0= -.11732768E+04  d E =-.657340E-02  mag=     0.1338
       N       E                     dE             d eps       ncg     rms          rms(c)
DAV:   1    -0.116614071174E+04    0.98247E-01   -0.33333E+00  1792   0.647E+00    0.197E+00
RMM:   2    -0.116631361514E+04   -0.17290E+00   -0.10019E+00  1561   0.974E-01    0.114E+01
RMM:   3    -0.116615891138E+04    0.15470E+00   -0.11952E-01  1584   0.407E-01    0.113E+00
RMM:   4    -0.116623922074E+04   -0.80309E-01   -0.14585E-02  1657   0.179E-01    0.890E-01
RMM:   5    -0.116623987393E+04   -0.65319E-03   -0.22564E-03  1636   0.864E-02    0.715E-01
RMM:   6    -0.116623932986E+04    0.54407E-03   -0.53393E-04  1758   0.282E-02    0.661E-01
RMM:   7    -0.116623966425E+04   -0.33439E-03   -0.11005E-04  1557   0.144E-02    0.527E-01
RMM:   8    -0.116623975193E+04   -0.87678E-04   -0.60596E-05  1449   0.144E-02    0.637E-01
RMM:   9    -0.116624054645E+04   -0.79452E-03   -0.72030E-04  1953   0.320E-02    0.336E-01
RMM:  10    -0.116624198051E+04   -0.14341E-02   -0.14398E-04  1653   0.199E-02    0.240E-01
RMM:  11    -0.116624348267E+04   -0.15022E-02   -0.26119E-04  1754   0.216E-02    0.249E-01
RMM:  12    -0.116624345327E+04    0.29394E-04   -0.58726E-05  1618   0.147E-02    0.263E-01
RMM:  13    -0.116624354107E+04   -0.87800E-04   -0.50714E-05  1623   0.102E-02    0.217E-01
RMM:  14    -0.116624373645E+04   -0.19537E-03   -0.57997E-05  1730   0.105E-02    0.108E-01
RMM:  15    -0.116624383476E+04   -0.98318E-04   -0.77762E-06  1279   0.584E-03    0.995E-02
RMM:  16    -0.116624382760E+04    0.71679E-05   -0.79045E-06  1256   0.410E-03    0.941E-02
RMM:  17    -0.116624385403E+04   -0.26431E-04   -0.15363E-05  1402   0.574E-03    0.110E-01
RMM:  18    -0.116624387951E+04   -0.25479E-04   -0.85697E-06  1318   0.451E-03    0.628E-02
RMM:  19    -0.116624390801E+04   -0.28503E-04   -0.13771E-06  1019   0.248E-03    0.587E-02
RMM:  20    -0.116624389153E+04    0.16475E-04   -0.27042E-06  1049   0.245E-03    0.740E-02
RMM:  21    -0.116624384897E+04    0.42561E-04   -0.98286E-06  1191   0.379E-03    0.534E-02
RMM:  22    -0.116624387235E+04   -0.23383E-04   -0.75660E-06  1202   0.360E-03    0.287E-02
RMM:  23    -0.116624390042E+04   -0.28064E-04   -0.47285E-06  1101   0.307E-03    0.123E-02
RMM:  24    -0.116624392987E+04   -0.29453E-04   -0.15997E-06  1002   0.256E-03    0.119E-02
RMM:  25    -0.116624393141E+04   -0.15336E-05   -0.46845E-07   958   0.146E-03    0.306E-03
RMM:  26    -0.116624393251E+04   -0.11040E-05   -0.19406E-07   904   0.922E-04    0.333E-03
RMM:  27    -0.116624393243E+04    0.84441E-07   -0.57690E-08   758   0.547E-04
   8 F= -.11732953E+04 E0= -.11732829E+04  d E =-.559489E-02  mag=     0.1135
       N       E                     dE             d eps       ncg     rms          rms(c)
DAV:   1    -0.116616049710E+04    0.83435E-01   -0.27249E+00  1792   0.586E+00    0.179E+00
RMM:   2    -0.116630638685E+04   -0.14589E+00   -0.82086E-01  1560   0.888E-01    0.111E+01
RMM:   3    -0.116616446591E+04    0.14192E+00   -0.98662E-02  1584   0.377E-01    0.107E+00
RMM:   4    -0.116624067660E+04   -0.76211E-01   -0.11671E-02  1639   0.168E-01    0.801E-01
RMM:   5    -0.116624117398E+04   -0.49739E-03   -0.19944E-03  1643   0.816E-02    0.660E-01
RMM:   6    -0.116624062155E+04    0.55243E-03   -0.48548E-04  1710   0.259E-02    0.661E-01
RMM:   7    -0.116624129504E+04   -0.67348E-03   -0.16675E-04  1560   0.175E-02    0.596E-01
RMM:   8    -0.116624118987E+04    0.10516E-03   -0.89637E-05  1470   0.173E-02    0.651E-01
RMM:   9    -0.116624177484E+04   -0.58497E-03   -0.37232E-04  1756   0.237E-02    0.406E-01
RMM:  10    -0.116624350927E+04   -0.17344E-02   -0.35396E-04  1768   0.260E-02    0.188E-01
RMM:  11    -0.116624447830E+04   -0.96902E-03   -0.10368E-04  1638   0.158E-02    0.182E-01
RMM:  12    -0.116624447464E+04    0.36601E-05   -0.15694E-04  1713   0.155E-02    0.127E-01
RMM:  13    -0.116624472670E+04   -0.25206E-03   -0.67727E-05  1662   0.126E-02    0.220E-01
RMM:  14    -0.116624475564E+04   -0.28941E-04   -0.45663E-05  1673   0.121E-02    0.870E-02
RMM:  15    -0.116624492321E+04   -0.16758E-03   -0.17262E-05  1433   0.710E-03    0.888E-02
RMM:  16    -0.116624492679E+04   -0.35771E-05   -0.59447E-06  1213   0.426E-03    0.109E-01
RMM:  17    -0.116624490153E+04    0.25263E-04   -0.67813E-06  1146   0.392E-03    0.618E-02
RMM:  18    -0.116624495336E+04   -0.51832E-04   -0.58947E-06  1168   0.390E-03    0.728E-02
RMM:  19    -0.116624495488E+04   -0.15229E-05   -0.16539E-06  1022   0.260E-03    0.614E-02
RMM:  20    -0.116624495593E+04   -0.10498E-05   -0.26659E-07   945   0.121E-03    0.615E-02
RMM:  21    -0.116624495867E+04   -0.27372E-05   -0.31809E-07   904   0.853E-04    0.642E-02
RMM:  22    -0.116624495064E+04    0.80276E-05   -0.75210E-07   952   0.138E-03    0.535E-02
RMM:  23    -0.116624495585E+04   -0.52091E-05   -0.70000E-07   943   0.123E-03    0.549E-02
RMM:  24    -0.116624494334E+04    0.12516E-04   -0.64104E-06  1314   0.316E-03    0.514E-02
RMM:  25    -0.116624495620E+04   -0.12865E-04   -0.16699E-06  1013   0.230E-03    0.517E-02
RMM:  26    -0.116624496530E+04   -0.91024E-05   -0.76623E-07   950   0.165E-03    0.516E-02
RMM:  27    -0.116624472070E+04    0.24461E-03   -0.18194E-04  2359   0.177E-02    0.107E-01
RMM:  28    -0.116624494370E+04   -0.22301E-03   -0.30773E-05  1686   0.860E-03    0.123E-01
RMM:  29    -0.116624496981E+04   -0.26104E-04   -0.13853E-05  1446   0.512E-03    0.141E-01
RMM:  30    -0.116624497632E+04   -0.65095E-05   -0.13425E-05  1507   0.482E-03    0.157E-01
RMM:  31    -0.116624496337E+04    0.12946E-04   -0.57485E-06  1246   0.433E-03    0.137E-01
RMM:  32    -0.116624489591E+04    0.67460E-04   -0.27713E-05  1792   0.712E-03    0.103E-01
RMM:  33    -0.116624493868E+04   -0.42768E-04   -0.42980E-06  1149   0.358E-03    0.956E-02
RMM:  34    -0.116624492635E+04    0.12332E-04   -0.15966E-05  1663   0.508E-03    0.725E-02
RMM:  35    -0.116624494470E+04   -0.18353E-04   -0.49509E-06  1219   0.337E-03    0.612E-02
RMM:  36    -0.116624495175E+04   -0.70545E-05   -0.37063E-06  1163   0.289E-03    0.514E-02
RMM:  37    -0.116624493051E+04    0.21245E-04   -0.17549E-05  1680   0.543E-03    0.275E-02
RMM:  38    -0.116624496814E+04   -0.37632E-04   -0.22948E-06  1066   0.312E-03    0.239E-02
RMM:  39    -0.116624497096E+04   -0.28188E-05   -0.23427E-06  1073   0.223E-03    0.163E-02
RMM:  40    -0.116624497706E+04   -0.60999E-05   -0.10984E-06  1007   0.180E-03    0.122E-02
RMM:  41    -0.116624497761E+04   -0.54928E-06   -0.12343E-06  1001   0.176E-03
   9 F= -.11732968E+04 E0= -.11732847E+04  d E =-.716138E-02  mag=     0.0984
       N       E                     dE             d eps       ncg     rms          rms(c)
DAV:   1    -0.116623487696E+04    0.10100E-01   -0.76933E-01  1664   0.262E+00    0.913E-01
RMM:   2    -0.116626821086E+04   -0.33334E-01   -0.14151E-01  1593   0.425E-01    0.608E+00
RMM:   3    -0.116622351126E+04    0.44700E-01   -0.19494E-02  1600   0.207E-01    0.485E-01
RMM:   4    -0.116624728257E+04   -0.23771E-01   -0.34332E-03  1651   0.980E-02    0.318E-01
RMM:   5    -0.116624776986E+04   -0.48729E-03   -0.54562E-04  1706   0.453E-02    0.316E-01
RMM:   6    -0.116624763716E+04    0.13270E-03   -0.13308E-04  1670   0.157E-02    0.251E-01
RMM:   7    -0.116624790819E+04   -0.27104E-03   -0.15569E-04  1548   0.164E-02    0.221E-01
RMM:   8    -0.116624841462E+04   -0.50642E-03   -0.82343E-04  1982   0.334E-02    0.153E-01
RMM:   9    -0.116624846499E+04   -0.50370E-04   -0.12224E-04  1699   0.147E-02    0.953E-02
RMM:  10    -0.116624847603E+04   -0.11043E-04   -0.13621E-05  1535   0.735E-03    0.929E-02
RMM:  11    -0.116624862979E+04   -0.15376E-03   -0.15855E-04  1931   0.143E-02    0.734E-02
RMM:  12    -0.116624868868E+04   -0.58889E-04   -0.16167E-05  1628   0.612E-03    0.637E-02
RMM:  13    -0.116624867992E+04    0.87582E-05   -0.40376E-06  1172   0.332E-03    0.613E-02
RMM:  14    -0.116624869179E+04   -0.11867E-04   -0.37769E-06  1084   0.270E-03    0.709E-02
RMM:  15    -0.116624871466E+04   -0.22865E-04   -0.62532E-06  1390   0.340E-03    0.609E-02
RMM:  16    -0.116624871290E+04    0.17527E-05   -0.90336E-06  1409   0.384E-03    0.666E-02
RMM:  17    -0.116624872803E+04   -0.15129E-04   -0.61379E-06  1374   0.338E-03    0.305E-02
RMM:  18    -0.116624875187E+04   -0.23835E-04   -0.48091E-06  1152   0.344E-03    0.206E-02
RMM:  19    -0.116624875890E+04   -0.70281E-05   -0.96499E-07   995   0.200E-03    0.185E-02
RMM:  20    -0.116624875769E+04    0.12057E-05   -0.40952E-07   961   0.129E-03    0.212E-02
RMM:  21    -0.116624875211E+04    0.55768E-05   -0.52592E-07   966   0.115E-03    0.215E-02
RMM:  22    -0.116624873577E+04    0.16348E-04   -0.41450E-06  1069   0.244E-03    0.868E-03
RMM:  23    -0.116624875508E+04   -0.19311E-04   -0.15146E-06   995   0.206E-03    0.391E-03
RMM:  24    -0.116624875949E+04   -0.44174E-05   -0.66357E-07   966   0.140E-03    0.307E-03
RMM:  25    -0.116624876027E+04   -0.77456E-06   -0.20752E-07   927   0.965E-04
  10 F= -.11733008E+04 E0= -.11732886E+04  d E =-.396083E-02  mag=     0.0980
       N       E                     dE             d eps       ncg     rms          rms(c)
DAV:   1    -0.116624733824E+04    0.14213E-02   -0.90845E-02  1664   0.901E-01    0.326E-01
RMM:   2    -0.116625112162E+04   -0.37834E-02   -0.16982E-02  1590   0.147E-01    0.188E+00
RMM:   3    -0.116624587613E+04    0.52455E-02   -0.24905E-03  1598   0.763E-02    0.127E-01
RMM:   4    -0.116624861802E+04   -0.27419E-02   -0.50028E-04  1630   0.368E-02    0.926E-02
RMM:   5    -0.116624873351E+04   -0.11549E-03   -0.70979E-05  1588   0.170E-02    0.901E-02
RMM:   6    -0.116624872108E+04    0.12430E-04   -0.16506E-05  1327   0.537E-03    0.806E-02
RMM:   7    -0.116624874731E+04   -0.26239E-04   -0.76026E-06  1420   0.385E-03    0.539E-02
RMM:   8    -0.116624888034E+04   -0.13303E-03   -0.11190E-04  2124   0.127E-02    0.602E-02
RMM:   9    -0.116624888846E+04   -0.81130E-05   -0.43661E-06  1229   0.402E-03    0.667E-02
RMM:  10    -0.116624890403E+04   -0.15578E-04   -0.17616E-05  1684   0.514E-03    0.405E-02
RMM:  11    -0.116624891537E+04   -0.11337E-04   -0.38294E-06  1208   0.308E-03    0.254E-02
RMM:  12    -0.116624896129E+04   -0.45914E-04   -0.13127E-05  1600   0.442E-03    0.219E-02
RMM:  13    -0.116624896395E+04   -0.26677E-05   -0.88255E-07  1003   0.181E-03    0.201E-02
RMM:  14    -0.116624896462E+04   -0.66361E-06   -0.96431E-07   993   0.150E-03
  11 F= -.11733010E+04 E0= -.11732889E+04  d E =-.422665E-02  mag=     0.0980
       N       E                     dE             d eps       ncg     rms          rms(c)
DAV:   1    -0.116624223153E+04    0.67324E-02   -0.63224E-01  1664   0.219E+00    0.431E-01
RMM:   2    -0.116625400215E+04   -0.11771E-01   -0.92322E-02  1617   0.353E-01    0.229E+00
RMM:   3    -0.116624671543E+04    0.72867E-02   -0.11524E-02  1667   0.143E-01    0.221E-01
RMM:   4    -0.116625087361E+04   -0.41582E-02   -0.16817E-03  1691   0.599E-02    0.246E-01
RMM:   5    -0.116625093227E+04   -0.58660E-04   -0.25913E-04  1762   0.251E-02    0.194E-01
RMM:   6    -0.116625101126E+04   -0.78991E-04   -0.54463E-05  1624   0.985E-03    0.157E-01
RMM:   7    -0.116625126540E+04   -0.25414E-03   -0.31869E-04  1607   0.227E-02    0.135E-01
RMM:   8    -0.116625136686E+04   -0.10146E-03   -0.63547E-05  1612   0.118E-02    0.180E-01
RMM:   9    -0.116625149564E+04   -0.12878E-03   -0.39952E-04  2090   0.232E-02    0.751E-02
RMM:  10    -0.116625153287E+04   -0.37229E-04   -0.20607E-05  1538   0.907E-03    0.673E-02
RMM:  11    -0.116625169677E+04   -0.16389E-03   -0.10891E-04  1780   0.118E-02    0.459E-02
RMM:  12    -0.116625169671E+04    0.58590E-07   -0.99134E-06  1546   0.532E-03
  12 F= -.11733039E+04 E0= -.11732917E+04  d E =-.287464E-02  mag=     0.0994
       N       E                     dE             d eps       ncg     rms          rms(c)
DAV:   1    -0.116624902758E+04    0.26692E-02   -0.20127E-01  1664   0.124E+00    0.233E-01
RMM:   2    -0.116625242962E+04   -0.34020E-02   -0.29439E-02  1613   0.199E-01    0.110E+00
RMM:   3    -0.116625064009E+04    0.17895E-02   -0.35903E-03  1681   0.793E-02    0.135E-01
RMM:   4    -0.116625165910E+04   -0.10190E-02   -0.45921E-04  1702   0.313E-02    0.155E-01
RMM:   5    -0.116625163981E+04    0.19290E-04   -0.74620E-05  1639   0.134E-02    0.110E-01
RMM:   6    -0.116625170085E+04   -0.61040E-04   -0.15436E-05  1351   0.587E-03    0.928E-02
RMM:   7    -0.116625188015E+04   -0.17931E-03   -0.59569E-05  1577   0.102E-02    0.933E-02
RMM:   8    -0.116625188248E+04   -0.23270E-05   -0.81527E-06  1465   0.491E-03    0.942E-02
RMM:   9    -0.116625195094E+04   -0.68459E-04   -0.40354E-05  1757   0.704E-03    0.903E-02
RMM:  10    -0.116625215499E+04   -0.20405E-03   -0.27816E-04  2315   0.181E-02    0.743E-02
RMM:  11    -0.116625217192E+04   -0.16935E-04   -0.90727E-06  1361   0.548E-03    0.748E-02
RMM:  12    -0.116625223234E+04   -0.60420E-04   -0.42591E-05  1911   0.763E-03    0.726E-02
RMM:  13    -0.116625220145E+04    0.30886E-04   -0.48361E-05  1881   0.712E-03    0.647E-02
RMM:  14    -0.116625221401E+04   -0.12552E-04   -0.21638E-06  1067   0.297E-03    0.643E-02
RMM:  15    -0.116625220270E+04    0.11301E-04   -0.36130E-06  1174   0.227E-03    0.581E-02
RMM:  16    -0.116625219605E+04    0.66543E-05   -0.24255E-05  1865   0.520E-03    0.426E-02
RMM:  17    -0.116625220421E+04   -0.81606E-05   -0.10397E-05  1586   0.422E-03    0.379E-02
RMM:  18    -0.116625219637E+04    0.78380E-05   -0.17549E-06  1040   0.265E-03    0.382E-02
RMM:  19    -0.116625214705E+04    0.49320E-04   -0.17755E-05  1484   0.538E-03    0.438E-02
RMM:  20    -0.116625215647E+04   -0.94190E-05   -0.29563E-05  1894   0.631E-03    0.264E-02
RMM:  21    -0.116625219146E+04   -0.34985E-04   -0.28855E-05  1892   0.671E-03    0.131E-02
RMM:  22    -0.116625217919E+04    0.12271E-04   -0.71797E-06  1224   0.365E-03    0.619E-03
RMM:  23    -0.116625220527E+04   -0.26088E-04   -0.25383E-06  1059   0.289E-03    0.813E-03
RMM:  24    -0.116625220619E+04   -0.91718E-06   -0.57340E-07  1006   0.167E-03
  13 F= -.11733045E+04 E0= -.11732924E+04  d E =-.346718E-02  mag=     0.1002
       N       E                     dE             d eps       ncg     rms          rms(c)
DAV:   1    -0.116624341034E+04    0.87949E-02   -0.61128E-01  1856   0.235E+00    0.351E-01
RMM:   2    -0.116625305031E+04   -0.96400E-02   -0.99788E-02  1601   0.366E-01    0.768E-01
RMM:   3    -0.116625299291E+04    0.57400E-04   -0.11183E-02  1705   0.127E-01    0.429E-01
RMM:   4    -0.116625325287E+04   -0.25996E-03   -0.10085E-03  1707   0.481E-02    0.229E-01
RMM:   5    -0.116625325898E+04   -0.61110E-05   -0.17810E-04  1872   0.180E-02    0.229E-01
RMM:   6    -0.116625318624E+04    0.72741E-04   -0.39433E-05  1484   0.632E-03    0.146E-01
RMM:   7    -0.116625334187E+04   -0.15563E-03   -0.73358E-05  1579   0.119E-02    0.115E-01
RMM:   8    -0.116625360267E+04   -0.26081E-03   -0.19080E-04  1765   0.185E-02    0.114E-01
RMM:   9    -0.116625364861E+04   -0.45932E-04   -0.24945E-05  1679   0.815E-03    0.116E-01
RMM:  10    -0.116625374566E+04   -0.97053E-04   -0.10588E-04  1978   0.126E-02    0.112E-01
RMM:  11    -0.116625381762E+04   -0.71958E-04   -0.15013E-05  1529   0.754E-03    0.709E-02
RMM:  12    -0.116625388870E+04   -0.71086E-04   -0.68239E-05  1918   0.925E-03    0.441E-02
RMM:  13    -0.116625390929E+04   -0.20590E-04   -0.44454E-06  1266   0.368E-03    0.422E-02
RMM:  14    -0.116625390457E+04    0.47263E-05   -0.42146E-06  1109   0.300E-03    0.360E-02
RMM:  15    -0.116625393133E+04   -0.26758E-04   -0.40797E-06  1133   0.313E-03    0.354E-02
RMM:  16    -0.116625393805E+04   -0.67234E-05   -0.10906E-06  1005   0.198E-03    0.327E-02
RMM:  17    -0.116625394730E+04   -0.92468E-05   -0.10951E-05  1550   0.409E-03    0.264E-02
RMM:  18    -0.116625395237E+04   -0.50763E-05   -0.88886E-07   995   0.198E-03    0.176E-02
RMM:  19    -0.116625395655E+04   -0.41801E-05   -0.30128E-06  1079   0.231E-03    0.135E-02
RMM:  20    -0.116625395171E+04    0.48465E-05   -0.10155E-06   980   0.174E-03    0.127E-02
RMM:  21    -0.116625393429E+04    0.17419E-04   -0.56694E-06  1184   0.302E-03    0.119E-02
RMM:  22    -0.116625394233E+04   -0.80433E-05   -0.47296E-06  1232   0.272E-03    0.122E-02
RMM:  23    -0.116625394537E+04   -0.30353E-05   -0.25771E-06  1025   0.231E-03    0.918E-03
RMM:  24    -0.116625395304E+04   -0.76788E-05   -0.11522E-06   970   0.193E-03    0.421E-03
RMM:  25    -0.116625395386E+04   -0.81497E-06   -0.27136E-07   940   0.124E-03
  14 F= -.11733064E+04 E0= -.11732942E+04  d E =-.189889E-02  mag=     0.1008
       N       E                     dE             d eps       ncg     rms          rms(c)
DAV:   1    -0.116625328420E+04    0.66885E-03   -0.41389E-02  1856   0.611E-01    0.914E-02
RMM:   2    -0.116625388396E+04   -0.59976E-03   -0.67987E-03  1601   0.957E-02    0.211E-01
RMM:   3    -0.116625382534E+04    0.58621E-04   -0.75530E-04  1691   0.335E-02    0.111E-01
RMM:   4    -0.116625386705E+04   -0.41712E-04   -0.76977E-05  1633   0.133E-02    0.577E-02
RMM:   5    -0.116625386450E+04    0.25554E-05   -0.11542E-05  1263   0.488E-03    0.583E-02
RMM:   6    -0.116625385680E+04    0.77012E-05   -0.30845E-06  1074   0.229E-03    0.377E-02
RMM:   7    -0.116625389562E+04   -0.38829E-04   -0.79426E-06  1458   0.407E-03    0.273E-02
RMM:   8    -0.116625394379E+04   -0.48170E-04   -0.17437E-05  1654   0.562E-03    0.327E-02
RMM:   9    -0.116625393910E+04    0.46987E-05   -0.16005E-06  1019   0.246E-03    0.321E-02
RMM:  10    -0.116625394465E+04   -0.55596E-05   -0.13285E-06  1029   0.194E-03    0.152E-02
RMM:  11    -0.116625398413E+04   -0.39473E-04   -0.51258E-06  1099   0.347E-03    0.789E-03
RMM:  12    -0.116625399458E+04   -0.10448E-04   -0.13567E-06  1008   0.201E-03    0.106E-02
RMM:  13    -0.116625399507E+04   -0.49166E-06   -0.19320E-07   949   0.107E-03
  15 F= -.11733065E+04 E0= -.11732943E+04  d E =-.198017E-02  mag=     0.1006
       N       E                     dE             d eps       ncg     rms          rms(c)
DAV:   1    -0.116624205611E+04    0.11938E-01   -0.63944E-01  1856   0.257E+00    0.329E-01
RMM:   2    -0.116625372223E+04   -0.11666E-01   -0.12349E-01  1620   0.397E-01    0.507E-01
RMM:   3    -0.116625434731E+04   -0.62508E-03   -0.13441E-02  1711   0.131E-01    0.343E-01
RMM:   4    -0.116625453942E+04   -0.19211E-03   -0.10380E-03  1771   0.447E-02    0.472E-01
RMM:   5    -0.116625412477E+04    0.41466E-03   -0.19704E-04  1691   0.221E-02    0.441E-01
RMM:   6    -0.116625415699E+04   -0.32222E-04   -0.59270E-05  1565   0.106E-02    0.250E-01
RMM:   7    -0.116625442537E+04   -0.26838E-03   -0.27059E-05  1505   0.969E-03    0.244E-01
RMM:   8    -0.116625440377E+04    0.21599E-04   -0.77629E-06  1236   0.466E-03    0.183E-01
RMM:   9    -0.116625474665E+04   -0.34288E-03   -0.26530E-04  2307   0.197E-02    0.879E-02
RMM:  10    -0.116625509392E+04   -0.34727E-03   -0.14138E-04  2206   0.157E-02    0.620E-02
RMM:  11    -0.116625516148E+04   -0.67561E-04   -0.11530E-05  1451   0.480E-03    0.700E-02
RMM:  12    -0.116625519259E+04   -0.31108E-04   -0.24453E-05  1567   0.589E-03    0.636E-02
RMM:  13    -0.116625524379E+04   -0.51200E-04   -0.14401E-05  1559   0.521E-03    0.371E-02
RMM:  14    -0.116625528201E+04   -0.38227E-04   -0.96661E-06  1507   0.466E-03    0.333E-02
RMM:  15    -0.116625528187E+04    0.14520E-06   -0.36409E-06  1093   0.315E-03
  16 F= -.11733080E+04 E0= -.11732958E+04  d E =-.147079E-02  mag=     0.1022
       N       E                     dE             d eps       ncg     rms          rms(c)
DAV:   1    -0.116625291605E+04    0.23660E-02   -0.11977E-01  1856   0.111E+00    0.157E-01
RMM:   2    -0.116625501738E+04   -0.21013E-02   -0.23155E-02  1618   0.172E-01    0.286E-01
RMM:   3    -0.116625502793E+04   -0.10547E-04   -0.25342E-03  1705   0.577E-02    0.142E-01
RMM:   4    -0.116625512299E+04   -0.95062E-04   -0.19479E-04  1720   0.201E-02    0.217E-01
RMM:   5    -0.116625499614E+04    0.12685E-03   -0.40685E-05  1491   0.994E-03    0.192E-01
RMM:   6    -0.116625502789E+04   -0.31749E-04   -0.12402E-05  1217   0.482E-03    0.106E-01
RMM:   7    -0.116625510755E+04   -0.79660E-04   -0.55455E-06  1172   0.458E-03    0.107E-01
RMM:   8    -0.116625511465E+04   -0.71002E-05   -0.26126E-06  1084   0.271E-03    0.720E-02
RMM:   9    -0.116625527882E+04   -0.16417E-03   -0.54669E-05  2084   0.916E-03    0.430E-02
RMM:  10    -0.116625536524E+04   -0.86415E-04   -0.12522E-05  1564   0.520E-03    0.380E-02
RMM:  11    -0.116625539032E+04   -0.25083E-04   -0.26581E-06  1062   0.281E-03    0.391E-02
RMM:  12    -0.116625539498E+04   -0.46564E-05   -0.63082E-06  1128   0.352E-03    0.395E-02
RMM:  13    -0.116625540559E+04   -0.10610E-04   -0.95793E-07  1016   0.210E-03    0.391E-02
RMM:  14    -0.116625537235E+04    0.33236E-04   -0.14114E-05  1526   0.477E-03    0.367E-02
RMM:  15    -0.116625538893E+04   -0.16581E-04   -0.21677E-06  1048   0.249E-03    0.363E-02
RMM:  16    -0.116625539915E+04   -0.10223E-04   -0.79579E-07   993   0.165E-03    0.357E-02
RMM:  17    -0.116625539955E+04   -0.39523E-06   -0.14519E-07   928   0.897E-04
  17 F= -.11733082E+04 E0= -.11732960E+04  d E =-.166901E-02  mag=     0.1022
       N       E                     dE             d eps       ncg     rms          rms(c)
DAV:   1    -0.116624576432E+04    0.96348E-02   -0.60171E-01  1760   0.238E+00    0.337E-01
RMM:   2    -0.116625554170E+04   -0.97774E-02   -0.10273E-01  1624   0.374E-01    0.580E-01
RMM:   3    -0.116625587152E+04   -0.32982E-03   -0.11406E-02  1686   0.125E-01    0.531E-01
RMM:   4    -0.116625597386E+04   -0.10235E-03   -0.92309E-04  1734   0.460E-02    0.464E-01
RMM:   5    -0.116625556285E+04    0.41101E-03   -0.15663E-04  1745   0.179E-02    0.347E-01
RMM:   6    -0.116625582545E+04   -0.26260E-03   -0.46806E-05  1539   0.105E-02    0.269E-01
RMM:   7    -0.116625586700E+04   -0.41548E-04   -0.14959E-05  1308   0.701E-03    0.260E-01
RMM:   8    -0.116625592472E+04   -0.57723E-04   -0.22737E-05  1552   0.677E-03    0.168E-01
RMM:   9    -0.116625649112E+04   -0.56640E-03   -0.51256E-04  2404   0.278E-02    0.712E-02
RMM:  10    -0.116625669927E+04   -0.20815E-03   -0.38236E-05  1688   0.103E-02    0.767E-02
RMM:  11    -0.116625678140E+04   -0.82134E-04   -0.13570E-05  1534   0.546E-03    0.657E-02
RMM:  12    -0.116625674289E+04    0.38508E-04   -0.12962E-05  1386   0.499E-03    0.518E-02
RMM:  13    -0.116625680318E+04   -0.60283E-04   -0.75322E-06  1233   0.380E-03    0.621E-02
RMM:  14    -0.116625679312E+04    0.10051E-04   -0.26866E-06  1078   0.303E-03    0.623E-02
RMM:  15    -0.116625679443E+04   -0.13095E-05   -0.36741E-06  1082   0.248E-03    0.609E-02
RMM:  16    -0.116625684028E+04   -0.45848E-04   -0.91862E-06  1392   0.413E-03    0.611E-02
RMM:  17    -0.116625679524E+04    0.45045E-04   -0.98613E-06  1379   0.470E-03    0.882E-02
RMM:  18    -0.116625662786E+04    0.16738E-03   -0.78938E-05  1944   0.112E-02    0.357E-02
RMM:  19    -0.116625676121E+04   -0.13336E-03   -0.23351E-05  1529   0.769E-03    0.220E-02
RMM:  20    -0.116625680420E+04   -0.42984E-04   -0.17513E-05  1619   0.557E-03    0.185E-02
RMM:  21    -0.116625683283E+04   -0.28630E-04   -0.34178E-06  1093   0.345E-03    0.876E-03
RMM:  22    -0.116625683910E+04   -0.62766E-05   -0.17657E-06  1010   0.259E-03    0.692E-03
RMM:  23    -0.116625683915E+04   -0.46395E-07   -0.53005E-07   961   0.154E-03
  18 F= -.11733097E+04 E0= -.11732976E+04  d E =-.153565E-02  mag=     0.1055
       N       E                     dE             d eps       ncg     rms          rms(c)
DAV:   1    -0.116625371717E+04    0.31219E-02   -0.18640E-01  1856   0.133E+00    0.185E-01
RMM:   2    -0.116625667628E+04   -0.29591E-02   -0.31861E-02  1623   0.209E-01    0.361E-01
RMM:   3    -0.116625667536E+04    0.91483E-06   -0.35521E-03  1688   0.703E-02    0.284E-01
RMM:   4    -0.116625676117E+04   -0.85805E-04   -0.26963E-04  1719   0.257E-02    0.267E-01
RMM:   5    -0.116625658961E+04    0.17156E-03   -0.56576E-05  1611   0.104E-02    0.197E-01
RMM:   6    -0.116625669753E+04   -0.10792E-03   -0.14506E-05  1298   0.607E-03    0.157E-01
RMM:   7    -0.116625671651E+04   -0.18987E-04   -0.41914E-06  1138   0.374E-03    0.153E-01
RMM:   8    -0.116625674013E+04   -0.23612E-04   -0.84059E-06  1407   0.407E-03    0.942E-02
RMM:   9    -0.116625694102E+04   -0.20090E-03   -0.15148E-04  2340   0.150E-02    0.338E-02
RMM:  10    -0.116625703592E+04   -0.94897E-04   -0.12474E-05  1466   0.587E-03    0.350E-02
RMM:  11    -0.116625708610E+04   -0.50184E-04   -0.60886E-06  1309   0.381E-03    0.212E-02
RMM:  12    -0.116625708463E+04    0.14677E-05   -0.10918E-06  1026   0.198E-03    0.187E-02
RMM:  13    -0.116625710425E+04   -0.19612E-04   -0.22071E-06  1043   0.230E-03    0.204E-02
RMM:  14    -0.116625712126E+04   -0.17012E-04   -0.33183E-06  1086   0.254E-03    0.173E-02
RMM:  15    -0.116625712147E+04   -0.20823E-06   -0.33569E-07   973   0.123E-03
  19 F= -.11733100E+04 E0= -.11732980E+04  d E =-.187289E-02  mag=     0.1065
       N       E                     dE             d eps       ncg     rms          rms(c)
DAV:   1    -0.116624837713E+04    0.87441E-02   -0.66789E-01  1632   0.229E+00    0.309E-01
RMM:   2    -0.116625743764E+04   -0.90605E-02   -0.93993E-02  1632   0.362E-01    0.834E-01
RMM:   3    -0.116625704914E+04    0.38850E-03   -0.11187E-02  1701   0.127E-01    0.223E-01
RMM:   4    -0.116625765931E+04   -0.61017E-03   -0.10348E-03  1721   0.445E-02    0.175E-01
RMM:   5    -0.116625767611E+04   -0.16796E-04   -0.15988E-04  1790   0.164E-02    0.178E-01
RMM:   6    -0.116625763459E+04    0.41521E-04   -0.27454E-05  1506   0.638E-03    0.165E-01
RMM:   7    -0.116625781450E+04   -0.17991E-03   -0.48596E-05  1566   0.960E-03    0.218E-01
RMM:   8    -0.116625778002E+04    0.34484E-04   -0.88344E-06  1427   0.626E-03    0.210E-01
RMM:   9    -0.116625797942E+04   -0.19941E-03   -0.22687E-04  2233   0.188E-02    0.846E-02
RMM:  10    -0.116625830200E+04   -0.32258E-03   -0.10169E-04  2003   0.144E-02    0.586E-02
RMM:  11    -0.116625837786E+04   -0.75857E-04   -0.15627E-05  1547   0.575E-03    0.549E-02
RMM:  12    -0.116625838626E+04   -0.84006E-05   -0.31305E-06  1115   0.351E-03    0.548E-02
RMM:  13    -0.116625840533E+04   -0.19073E-04   -0.36266E-06  1213   0.268E-03    0.519E-02
RMM:  14    -0.116625845262E+04   -0.47288E-04   -0.90709E-05  2287   0.111E-02    0.743E-02
RMM:  15    -0.116625846175E+04   -0.91343E-05   -0.46696E-06  1200   0.340E-03    0.666E-02
RMM:  16    -0.116625846964E+04   -0.78828E-05   -0.17958E-06  1045   0.218E-03    0.605E-02
RMM:  17    -0.116625845578E+04    0.13854E-04   -0.32547E-06  1056   0.247E-03    0.553E-02
RMM:  18    -0.116625847774E+04   -0.21960E-04   -0.25707E-06  1053   0.242E-03    0.522E-02
RMM:  19    -0.116625847567E+04    0.20742E-05   -0.31547E-07   988   0.128E-03    0.522E-02
RMM:  20    -0.116625847583E+04   -0.15734E-06   -0.14590E-06  1000   0.155E-03
  20 F= -.11733114E+04 E0= -.11732994E+04  d E =-.140785E-02  mag=     0.1051
