       N       E                     dE             d eps       ncg     rms          rms(c)
DAV:   1     0.501436728843E+04    0.50144E+04   -0.17365E+05  1836   0.924E+02
DAV:   2    -0.316336887695E+02   -0.50460E+04   -0.46232E+04  2592   0.211E+02
DAV:   3    -0.119472364929E+04   -0.11631E+04   -0.11578E+04  2016   0.112E+02
DAV:   4    -0.124333400823E+04   -0.48610E+02   -0.48298E+02  2016   0.305E+01
DAV:   5    -0.124459223411E+04   -0.12582E+01   -0.12552E+01  2376   0.447E+00    0.675E+01
RMM:   6    -0.122873582170E+04    0.15856E+02   -0.29791E+01  1584   0.510E+00    0.552E+01
RMM:   7    -0.121347618086E+04    0.15260E+02   -0.78107E+00  1584   0.321E+00    0.436E+01
RMM:   8    -0.118905517601E+04    0.24421E+02   -0.28226E+01  1584   0.609E+00    0.288E+01
RMM:   9    -0.117750636140E+04    0.11549E+02   -0.19266E+01  1584   0.506E+00    0.206E+01
RMM:  10    -0.117675288577E+04    0.75348E+00   -0.15578E+01  1584   0.448E+00    0.109E+01
RMM:  11    -0.117756191031E+04   -0.80902E+00   -0.21309E+00  1595   0.175E+00    0.799E+00
RMM:  12    -0.117706916288E+04    0.49275E+00   -0.34509E-01  1590   0.643E-01    0.601E+00
RMM:  13    -0.117664002202E+04    0.42914E+00   -0.15468E+00  1584   0.135E+00    0.277E+00
RMM:  14    -0.117664505227E+04   -0.50302E-02   -0.50132E-02  1602   0.285E-01    0.186E+00
RMM:  15    -0.117662432188E+04    0.20730E-01   -0.10100E-01  1584   0.333E-01    0.633E-01
RMM:  16    -0.117662424772E+04    0.74158E-04   -0.38683E-02  1584   0.231E-01    0.490E-01
RMM:  17    -0.117662430179E+04   -0.54066E-04   -0.40520E-03  1590   0.778E-02    0.220E-01
RMM:  18    -0.117662450307E+04   -0.20128E-03   -0.53278E-04  1204   0.269E-02    0.144E-01
RMM:  19    -0.117662438607E+04    0.11700E-03   -0.62594E-04  1276   0.276E-02    0.759E-02
RMM:  20    -0.117662439020E+04   -0.41317E-05   -0.15771E-04  1047   0.152E-02
   1 F= -.11840233E+04 E0= -.11840233E+04  d E =-.118402E+04  mag=     1.0073
       N       E                     dE             d eps       ncg     rms          rms(c)
DAV:   1    -0.117662288643E+04    0.14996E-02   -0.89122E-01  1620   0.143E+00    0.464E-01
RMM:   2    -0.117662399746E+04   -0.11110E-02   -0.20687E-02  1584   0.191E-01    0.427E-01
RMM:   3    -0.117662349166E+04    0.50580E-03   -0.14171E-03  1589   0.431E-02    0.372E-01
RMM:   4    -0.117662259405E+04    0.89761E-03   -0.33776E-03  1584   0.658E-02    0.133E-01
RMM:   5    -0.117662266136E+04   -0.67315E-04   -0.51277E-04  1459   0.267E-02
   2 F= -.11840224E+04 E0= -.11840224E+04  d E =0.844739E-03  mag=     0.9995
       N       E                     dE             d eps       ncg     rms          rms(c)
DAV:   1    -0.117662583238E+04   -0.32383E-02   -0.29686E-01  1692   0.821E-01    0.259E-01
RMM:   2    -0.117662602311E+04   -0.19073E-03   -0.60286E-03  1584   0.106E-01    0.238E-01
RMM:   3    -0.117662575048E+04    0.27264E-03   -0.41184E-04  1197   0.249E-02    0.203E-01
RMM:   4    -0.117662533950E+04    0.41098E-03   -0.18731E-03  1584   0.485E-02    0.683E-02
RMM:   5    -0.117662536645E+04   -0.26955E-04   -0.12385E-04  1040   0.147E-02
   3 F= -.11840246E+04 E0= -.11840246E+04  d E =-.135194E-02  mag=     1.0000
       N       E                     dE             d eps       ncg     rms          rms(c)
DAV:   1    -0.117662642448E+04   -0.10850E-02   -0.37377E-01  1656   0.940E-01    0.244E-01
RMM:   2    -0.117662661812E+04   -0.19364E-03   -0.77015E-03  1584   0.125E-01    0.207E-01
RMM:   3    -0.117662611968E+04    0.49844E-03   -0.48376E-04  1337   0.294E-02    0.162E-01
RMM:   4    -0.117662563432E+04    0.48536E-03   -0.18809E-03  1584   0.485E-02    0.639E-02
RMM:   5    -0.117662567195E+04   -0.37632E-04   -0.14406E-04  1065   0.151E-02
   4 F= -.11840250E+04 E0= -.11840250E+04  d E =-.385876E-03  mag=     1.0000
       N       E                     dE             d eps       ncg     rms          rms(c)
DAV:   1    -0.117662622375E+04   -0.58943E-03   -0.59287E-02  1728   0.374E-01    0.958E-02
RMM:   2    -0.117662621729E+04    0.64640E-05   -0.11627E-03  1530   0.487E-02    0.816E-02
RMM:   3    -0.117662610900E+04    0.10829E-03   -0.91222E-05   992   0.132E-02    0.613E-02
RMM:   4    -0.117662600815E+04    0.10085E-03   -0.37665E-04  1244   0.221E-02    0.247E-02
RMM:   5    -0.117662602416E+04   -0.16015E-04   -0.34475E-05   988   0.879E-03
   5 F= -.11840253E+04 E0= -.11840253E+04  d E =-.704865E-03  mag=     1.0000
