       N       E                     dE             d eps       ncg     rms          rms(c)
DAV:   1     0.512478217453E+04    0.51248E+04   -0.17464E+05  1800   0.932E+02
DAV:   2     0.852271844962E+01   -0.51163E+04   -0.46927E+04  2520   0.216E+02
DAV:   3    -0.118072232049E+04   -0.11892E+04   -0.11836E+04  2016   0.115E+02
DAV:   4    -0.123247790828E+04   -0.51756E+02   -0.51474E+02  2052   0.323E+01
DAV:   5    -0.123379790761E+04   -0.13200E+01   -0.13167E+01  2304   0.478E+00    0.603E+01
RMM:   6    -0.122257573267E+04    0.11222E+02   -0.69124E+00  1584   0.323E+00    0.501E+01
RMM:   7    -0.118768140789E+04    0.34894E+02   -0.46281E+01  1584   0.798E+00    0.307E+01
RMM:   8    -0.117725419256E+04    0.10427E+02   -0.12392E+01  1584   0.427E+00    0.248E+01
RMM:   9    -0.117229606553E+04    0.49581E+01   -0.16040E+01  1584   0.467E+00    0.142E+01
RMM:  10    -0.117317964422E+04   -0.88358E+00   -0.98060E+00  1584   0.371E+00    0.804E+00
RMM:  11    -0.117226225537E+04    0.91739E+00   -0.26307E+00  1584   0.197E+00    0.447E+00
RMM:  12    -0.117219126718E+04    0.70988E-01   -0.47675E-01  1592   0.778E-01    0.210E+00
RMM:  13    -0.117217149084E+04    0.19776E-01   -0.73247E-02  1598   0.357E-01    0.153E+00
RMM:  14    -0.117212461381E+04    0.46877E-01   -0.72750E-02  1587   0.288E-01    0.582E-01
RMM:  15    -0.117212236363E+04    0.22502E-02   -0.15814E-02  1720   0.133E-01    0.215E-01
RMM:  16    -0.117212302526E+04   -0.66163E-03   -0.27325E-03  1525   0.540E-02    0.159E-01
RMM:  17    -0.117212337430E+04   -0.34904E-03   -0.13573E-03  1591   0.436E-02    0.122E-01
RMM:  18    -0.117212336355E+04    0.10751E-04   -0.40948E-04  1178   0.312E-02
   1 F= -.11792211E+04 E0= -.11792211E+04  d E =-.117922E+04  mag=    -0.0042
       N       E                     dE             d eps       ncg     rms          rms(c)
DAV:   1    -0.117212250582E+04    0.86848E-03   -0.41558E-01  1764   0.103E+00    0.189E-01
RMM:   2    -0.117212337459E+04   -0.86877E-03   -0.13184E-02  1584   0.162E-01    0.179E-01
RMM:   3    -0.117212315155E+04    0.22304E-03   -0.75580E-04  1427   0.436E-02    0.165E-01
RMM:   4    -0.117212258653E+04    0.56502E-03   -0.31369E-03  1584   0.625E-02    0.600E-02
RMM:   5    -0.117212256928E+04    0.17247E-04   -0.96904E-05  1035   0.182E-02
   2 F= -.11792204E+04 E0= -.11792204E+04  d E =0.633379E-03  mag=    -0.0004
       N       E                     dE             d eps       ncg     rms          rms(c)
DAV:   1    -0.117212412811E+04   -0.15416E-02   -0.14112E-01  1692   0.597E-01    0.103E-01
RMM:   2    -0.117212431135E+04   -0.18325E-03   -0.35007E-03  1584   0.873E-02    0.968E-02
RMM:   3    -0.117212420532E+04    0.10604E-03   -0.17281E-04  1073   0.215E-02    0.871E-02
RMM:   4    -0.117212397641E+04    0.22891E-03   -0.11573E-03  1576   0.380E-02    0.304E-02
RMM:   5    -0.117212397294E+04    0.34693E-05   -0.30679E-05   988   0.109E-02
   3 F= -.11792218E+04 E0= -.11792218E+04  d E =-.675361E-03  mag=    -0.0000
