       N       E                     dE             d eps       ncg     rms          rms(c)
DAV:   1     0.500664801331E+04    0.50066E+04   -0.17117E+05  1800   0.915E+02
DAV:   2    -0.321831502103E+02   -0.50388E+04   -0.45985E+04  2520   0.210E+02
DAV:   3    -0.119421153328E+04   -0.11620E+04   -0.11566E+04  2160   0.112E+02
DAV:   4    -0.124004090546E+04   -0.45829E+02   -0.45602E+02  1980   0.291E+01
DAV:   5    -0.124123203792E+04   -0.11911E+01   -0.11879E+01  2268   0.441E+00    0.687E+01
RMM:   6    -0.122490489929E+04    0.16327E+02   -0.32244E+01  1584   0.543E+00    0.578E+01
RMM:   7    -0.120998512048E+04    0.14920E+02   -0.67800E+00  1584   0.298E+00    0.460E+01
RMM:   8    -0.118248266900E+04    0.27502E+02   -0.42899E+01  1584   0.745E+00    0.284E+01
RMM:   9    -0.117425869794E+04    0.82240E+01   -0.10688E+01  1584   0.378E+00    0.215E+01
RMM:  10    -0.117216301351E+04    0.20957E+01   -0.84995E+00  1584   0.334E+00    0.151E+01
RMM:  11    -0.117354404519E+04   -0.13810E+01   -0.63109E+00  1584   0.289E+00    0.705E+00
RMM:  12    -0.117314086270E+04    0.40318E+00   -0.19471E-01  1618   0.613E-01    0.567E+00
RMM:  13    -0.117266596750E+04    0.47490E+00   -0.29524E+00  1584   0.189E+00    0.210E+00
RMM:  14    -0.117261592233E+04    0.50045E-01   -0.20386E-01  1584   0.510E-01    0.109E+00
RMM:  15    -0.117260074439E+04    0.15178E-01   -0.34388E-02  1585   0.203E-01    0.758E-01
RMM:  16    -0.117259882239E+04    0.19220E-02   -0.41963E-02  1584   0.231E-01    0.462E-01
RMM:  17    -0.117259692928E+04    0.18931E-02   -0.33944E-03  1595   0.704E-02    0.323E-01
RMM:  18    -0.117259638112E+04    0.54816E-03   -0.25307E-03  1584   0.497E-02    0.167E-01
RMM:  19    -0.117259631706E+04    0.64060E-04   -0.95766E-04  1541   0.334E-02
   1 F= -.11799328E+04 E0= -.11799328E+04  d E =-.117993E+04  mag=    -0.0086
       N       E                     dE             d eps       ncg     rms          rms(c)
DAV:   1    -0.117259119013E+04    0.51910E-02   -0.12667E+00  1764   0.173E+00    0.496E-01
RMM:   2    -0.117259380420E+04   -0.26141E-02   -0.30836E-02  1584   0.237E-01    0.470E-01
RMM:   3    -0.117259365495E+04    0.14924E-03   -0.18912E-03  1652   0.513E-02    0.422E-01
RMM:   4    -0.117259312458E+04    0.53037E-03   -0.45113E-03  1584   0.769E-02    0.974E-02
RMM:   5    -0.117259313298E+04   -0.83909E-05   -0.17043E-04  1086   0.183E-02
   2 F= -.11799305E+04 E0= -.11799305E+04  d E =0.224478E-02  mag=    -0.0018
       N       E                     dE             d eps       ncg     rms          rms(c)
DAV:   1    -0.117259707221E+04   -0.39476E-02   -0.48997E-01  1800   0.107E+00    0.305E-01
RMM:   2    -0.117259780683E+04   -0.73461E-03   -0.98379E-03  1585   0.138E-01    0.294E-01
RMM:   3    -0.117259772252E+04    0.84305E-04   -0.53793E-04  1263   0.285E-02
   3 F= -.11799345E+04 E0= -.11799345E+04  d E =-.175916E-02  mag=     0.0011
       N       E                     dE             d eps       ncg     rms          rms(c)
DAV:   1    -0.117259633530E+04    0.14715E-02   -0.77041E-01  1656   0.137E+00    0.312E-01
RMM:   2    -0.117259745100E+04   -0.11157E-02   -0.15439E-02  1584   0.173E-01    0.290E-01
RMM:   3    -0.117259736865E+04    0.82352E-04   -0.84283E-04  1368   0.374E-02
   4 F= -.11799343E+04 E0= -.11799343E+04  d E =0.255175E-03  mag=    -0.0005
       N       E                     dE             d eps       ncg     rms          rms(c)
DAV:   1    -0.117259769231E+04   -0.24131E-03   -0.27552E-01  1728   0.825E-01    0.145E-01
RMM:   2    -0.117259825907E+04   -0.56676E-03   -0.64466E-03  1584   0.114E-01    0.128E-01
RMM:   3    -0.117259821924E+04    0.39827E-04   -0.28355E-04  1141   0.232E-02
   5 F= -.11799351E+04 E0= -.11799351E+04  d E =-.538558E-03  mag=     0.0002
