       N       E                     dE             d eps       ncg     rms          rms(c)
DAV:   1     0.496139610169E+04    0.49614E+04   -0.17189E+05  1836   0.915E+02
DAV:   2    -0.409384779843E+02   -0.50023E+04   -0.45688E+04  2520   0.209E+02
DAV:   3    -0.119076155727E+04   -0.11498E+04   -0.11442E+04  2124   0.111E+02
DAV:   4    -0.123697169368E+04   -0.46210E+02   -0.45961E+02  2016   0.292E+01
DAV:   5    -0.123815000743E+04   -0.11783E+01   -0.11750E+01  2304   0.428E+00    0.665E+01
RMM:   6    -0.122344235541E+04    0.14708E+02   -0.27788E+01  1584   0.529E+00    0.547E+01
RMM:   7    -0.120850966607E+04    0.14933E+02   -0.71605E+00  1584   0.308E+00    0.441E+01
RMM:   8    -0.118138857859E+04    0.27121E+02   -0.47790E+01  1584   0.790E+00    0.304E+01
RMM:   9    -0.117581240187E+04    0.55762E+01   -0.38451E+00  1592   0.231E+00    0.234E+01
RMM:  10    -0.117201954219E+04    0.37929E+01   -0.13229E+01  1584   0.409E+00    0.168E+01
RMM:  11    -0.117259610414E+04   -0.57656E+00   -0.73330E+00  1584   0.311E+00    0.920E+00
RMM:  12    -0.117223837822E+04    0.35773E+00   -0.57791E-01  1629   0.892E-01    0.665E+00
RMM:  13    -0.117178045124E+04    0.45793E+00   -0.22822E+00  1584   0.166E+00    0.476E+00
RMM:  14    -0.117141670818E+04    0.36374E+00   -0.43951E-01  1584   0.660E-01    0.234E+00
RMM:  15    -0.117146839740E+04   -0.51689E-01   -0.11836E-01  1610   0.293E-01    0.169E+00
RMM:  16    -0.117140543337E+04    0.62964E-01   -0.49982E-02  1584   0.231E-01    0.122E+00
RMM:  17    -0.117140243728E+04    0.29961E-02   -0.47411E-03  1602   0.753E-02    0.969E-01
RMM:  18    -0.117140258486E+04   -0.14758E-03   -0.11341E-03  1462   0.398E-02    0.789E-01
RMM:  19    -0.117139704052E+04    0.55443E-02   -0.31934E-03  1546   0.454E-02    0.561E-01
RMM:  20    -0.117139435927E+04    0.26812E-02   -0.17810E-03  1375   0.332E-02    0.381E-01
RMM:  21    -0.117139274233E+04    0.16169E-02   -0.91771E-04  1265   0.271E-02    0.263E-01
RMM:  22    -0.117139218806E+04    0.55426E-03   -0.29986E-04  1091   0.151E-02    0.220E-01
RMM:  23    -0.117139152918E+04    0.65889E-03   -0.65337E-04  1164   0.204E-02    0.917E-02
RMM:  24    -0.117139147373E+04    0.55449E-04   -0.97539E-05  1046   0.872E-03
   1 F= -.11785634E+04 E0= -.11785634E+04  d E =-.117856E+04  mag=    -0.0031
       N       E                     dE             d eps       ncg     rms          rms(c)
DAV:   1    -0.117138677370E+04    0.47555E-02   -0.18231E+00  1656   0.202E+00    0.499E-01
RMM:   2    -0.117139014828E+04   -0.33746E-02   -0.41578E-02  1584   0.277E-01    0.496E-01
RMM:   3    -0.117139013961E+04    0.86748E-05   -0.26422E-03  1671   0.589E-02    0.473E-01
RMM:   4    -0.117138914634E+04    0.99326E-03   -0.18390E-03  1589   0.493E-02    0.289E-01
RMM:   5    -0.117138925865E+04   -0.11231E-03   -0.32723E-03  1584   0.634E-02    0.897E-02
RMM:   6    -0.117138902742E+04    0.23123E-03   -0.31597E-04  1276   0.193E-02    0.477E-02
RMM:   7    -0.117138899351E+04    0.33913E-04   -0.21575E-04  1057   0.164E-02
   2 F= -.11785619E+04 E0= -.11785619E+04  d E =0.149923E-02  mag=     0.0001
       N       E                     dE             d eps       ncg     rms          rms(c)
DAV:   1    -0.117139312829E+04   -0.41009E-02   -0.58822E-01  1764   0.114E+00    0.289E-01
RMM:   2    -0.117139398629E+04   -0.85800E-03   -0.11579E-02  1585   0.152E-01    0.290E-01
RMM:   3    -0.117139395736E+04    0.28925E-04   -0.64333E-04  1271   0.304E-02
   3 F= -.11785663E+04 E0= -.11785663E+04  d E =-.290944E-02  mag=     0.0000
       N       E                     dE             d eps       ncg     rms          rms(c)
DAV:   1    -0.117139153014E+04    0.24561E-02   -0.88063E-01  1728   0.143E+00    0.240E-01
RMM:   2    -0.117139284664E+04   -0.13165E-02   -0.17041E-02  1584   0.186E-01    0.198E-01
RMM:   3    -0.117139271614E+04    0.13050E-03   -0.90785E-04  1356   0.389E-02    0.178E-01
RMM:   4    -0.117139232406E+04    0.39208E-03   -0.75439E-04  1550   0.322E-02    0.105E-01
RMM:   5    -0.117139228321E+04    0.40845E-04   -0.75729E-04  1556   0.310E-02
   4 F= -.11785650E+04 E0= -.11785650E+04  d E =0.131315E-02  mag=     0.0000
       N       E                     dE             d eps       ncg     rms          rms(c)
DAV:   1    -0.117139369696E+04   -0.13729E-02   -0.39959E-01  1728   0.966E-01    0.198E-01
RMM:   2    -0.117139423227E+04   -0.53530E-03   -0.74313E-03  1584   0.122E-01    0.189E-01
RMM:   3    -0.117139418264E+04    0.49631E-04   -0.38168E-04  1187   0.258E-02
   5 F= -.11785667E+04 E0= -.11785667E+04  d E =-.343241E-03  mag=    -0.0000
