       N       E                     dE             d eps       ncg     rms          rms(c)
DAV:   1     0.486214953207E+04    0.48621E+04   -0.17091E+05  1728   0.987E+02
DAV:   2     0.151449181040E+02   -0.48470E+04   -0.44390E+04  2232   0.216E+02
DAV:   3    -0.117948340942E+04   -0.11946E+04   -0.11874E+04  1872   0.118E+02
DAV:   4    -0.123328864691E+04   -0.53805E+02   -0.53431E+02  1836   0.333E+01
DAV:   5    -0.123459009742E+04   -0.13015E+01   -0.12985E+01  2088   0.491E+00    0.780E+01
RMM:   6    -0.122110084326E+04    0.13489E+02   -0.77373E+00  1441   0.335E+00    0.713E+01
RMM:   7    -0.120349148229E+04    0.17609E+02   -0.11574E+01  1440   0.417E+00    0.598E+01
RMM:   8    -0.116909493365E+04    0.34397E+02   -0.80576E+01  1440   0.109E+01    0.318E+01
RMM:   9    -0.117055611863E+04   -0.14612E+01   -0.24436E+01  1440   0.608E+00    0.141E+01
RMM:  10    -0.117152105650E+04   -0.96494E+00   -0.26531E+00  1454   0.212E+00    0.976E+00
RMM:  11    -0.116995214797E+04    0.15689E+01   -0.20748E+00  1441   0.158E+00    0.515E+00
RMM:  12    -0.116948447691E+04    0.46767E+00   -0.11265E+00  1440   0.123E+00    0.187E+00
RMM:  13    -0.116943635523E+04    0.48122E-01   -0.17275E-01  1444   0.515E-01    0.121E+00
RMM:  14    -0.116942838579E+04    0.79694E-02   -0.70462E-02  1467   0.278E-01    0.457E-01
RMM:  15    -0.116942850570E+04   -0.11991E-03   -0.21544E-02  1442   0.176E-01    0.393E-01
RMM:  16    -0.116942862105E+04   -0.11535E-03   -0.16638E-03  1436   0.534E-02    0.336E-01
RMM:  17    -0.116942879372E+04   -0.17268E-03   -0.11945E-03  1401   0.405E-02    0.258E-01
RMM:  18    -0.116942897431E+04   -0.18059E-03   -0.17420E-03  1400   0.494E-02    0.159E-01
RMM:  19    -0.116942924034E+04   -0.26602E-03   -0.20746E-04   966   0.186E-02    0.104E-01
RMM:  20    -0.116942914465E+04    0.95683E-04   -0.28546E-04  1034   0.214E-02
   1 F= -.11767679E+04 E0= -.11767539E+04  d E =-.117677E+04  mag=    -0.9760
       N       E                     dE             d eps       ncg     rms          rms(c)
DAV:   1    -0.116942799141E+04    0.12489E-02   -0.48986E-01  1512   0.123E+00    0.540E-01
RMM:   2    -0.116942863463E+04   -0.64322E-03   -0.15018E-02  1440   0.185E-01    0.371E-01
RMM:   3    -0.116942806988E+04    0.56476E-03   -0.15534E-03  1483   0.513E-02    0.265E-01
RMM:   4    -0.116942772862E+04    0.34126E-03   -0.14703E-03  1415   0.452E-02    0.152E-01
RMM:   5    -0.116942770964E+04    0.18980E-04   -0.52010E-04  1308   0.288E-02
   2 F= -.11767667E+04 E0= -.11767519E+04  d E =0.123216E-02  mag=    -0.9606
       N       E                     dE             d eps       ncg     rms          rms(c)
DAV:   1    -0.116943036937E+04   -0.26408E-02   -0.19628E-01  1476   0.777E-01    0.330E-01
RMM:   2    -0.116943044103E+04   -0.71662E-04   -0.50266E-03  1440   0.111E-01    0.222E-01
RMM:   3    -0.116943013892E+04    0.30211E-03   -0.59726E-04  1265   0.324E-02    0.155E-01
RMM:   4    -0.116942995098E+04    0.18794E-03   -0.73373E-04  1384   0.330E-02    0.863E-02
RMM:   5    -0.116942993497E+04    0.16015E-04   -0.17725E-04   908   0.183E-02
   3 F= -.11767688E+04 E0= -.11767544E+04  d E =-.863524E-03  mag=    -0.9578
