       N       E                     dE             d eps       ncg     rms          rms(c)
DAV:   1     0.487213367919E+04    0.48721E+04   -0.17276E+05  1872   0.911E+02
DAV:   2    -0.516638365848E+02   -0.49238E+04   -0.44795E+04  2520   0.213E+02
DAV:   3    -0.118856167565E+04   -0.11369E+04   -0.11316E+04  2088   0.112E+02
DAV:   4    -0.124452623346E+04   -0.55965E+02   -0.55715E+02  2160   0.358E+01
DAV:   5    -0.124626989538E+04   -0.17437E+01   -0.17362E+01  2196   0.552E+00    0.674E+01
RMM:   6    -0.123186006308E+04    0.14410E+02   -0.86912E+00  1808   0.367E+00    0.551E+01
RMM:   7    -0.118846631742E+04    0.43394E+02   -0.89406E+01  1818   0.113E+01    0.324E+01
RMM:   8    -0.118211540873E+04    0.63509E+01   -0.11087E+01  1854   0.872E+00    0.236E+01
RMM:   9    -0.117881618513E+04    0.32992E+01   -0.21901E+01  1661   0.568E+00    0.141E+01
RMM:  10    -0.117988144930E+04   -0.10653E+01   -0.78550E+00  1786   0.690E+00    0.897E+00
RMM:  11    -0.117916786558E+04    0.71358E+00   -0.20439E+00  2010   0.195E+00    0.606E+00
RMM:  12    -0.117863523876E+04    0.53263E+00   -0.24461E+00  1772   0.189E+00    0.412E+00
RMM:  13    -0.117845598954E+04    0.17925E+00   -0.36341E-01  1849   0.149E+00    0.204E+00
RMM:  14    -0.117845327196E+04    0.27176E-02   -0.17460E-01  1716   0.468E-01    0.120E+00
RMM:  15    -0.117844688979E+04    0.63822E-02   -0.27390E-02  1765   0.562E-01    0.116E+00
RMM:  16    -0.117844645807E+04    0.43171E-03   -0.94610E-03  1876   0.124E-01    0.892E-01
RMM:  17    -0.117844673230E+04   -0.27423E-03   -0.10836E-03  1390   0.932E-02    0.744E-01
RMM:  18    -0.117844636742E+04    0.36488E-03   -0.83447E-04  1434   0.447E-02    0.549E-01
RMM:  19    -0.117844594709E+04    0.42033E-03   -0.84897E-04  1353   0.532E-02    0.385E-01
RMM:  20    -0.117844598746E+04   -0.40366E-04   -0.17027E-04  1119   0.347E-02
   1 F= -.11856047E+04 E0= -.11856047E+04  d E =-.118560E+04  mag=    -0.0136
       N       E                     dE             d eps       ncg     rms          rms(c)
DAV:   1    -0.117844498541E+04    0.96169E-03   -0.36405E-01  1800   0.989E-01    0.311E-01
RMM:   2    -0.117844568927E+04   -0.70387E-03   -0.12858E-02  1911   0.175E-01    0.309E-01
RMM:   3    -0.117844547844E+04    0.21083E-03   -0.11485E-03  1514   0.971E-02    0.298E-01
RMM:   4    -0.117844489149E+04    0.58696E-03   -0.52846E-04  1432   0.439E-02    0.256E-01
RMM:   5    -0.117844453366E+04    0.35782E-03   -0.35207E-03  1784   0.802E-02    0.962E-02
RMM:   6    -0.117844449318E+04    0.40485E-04   -0.38538E-04  1249   0.774E-02
   2 F= -.11856033E+04 E0= -.11856033E+04  d E =0.139282E-02  mag=    -0.0003
       N       E                     dE             d eps       ncg     rms          rms(c)
DAV:   1    -0.117844693384E+04   -0.24002E-02   -0.15461E-01  1836   0.642E-01    0.138E-01
RMM:   2    -0.117844708193E+04   -0.14809E-03   -0.40242E-03  1827   0.107E-01    0.122E-01
RMM:   3    -0.117844686395E+04    0.21798E-03   -0.42185E-04  1330   0.692E-02    0.105E-01
RMM:   4    -0.117844651783E+04    0.34612E-03   -0.78069E-04  1572   0.379E-02    0.559E-02
RMM:   5    -0.117844648420E+04    0.33623E-04   -0.22723E-04  1109   0.529E-02
   3 F= -.11856052E+04 E0= -.11856052E+04  d E =-.530669E-03  mag=     0.0001
