       N       E                     dE             d eps       ncg     rms          rms(c)
DAV:   1     0.499829272824E+04    0.49983E+04   -0.17456E+05  1836   0.924E+02
DAV:   2    -0.384380065240E+02   -0.50367E+04   -0.46215E+04  2520   0.211E+02
DAV:   3    -0.119442920834E+04   -0.11560E+04   -0.11507E+04  2232   0.111E+02
DAV:   4    -0.124158286686E+04   -0.47154E+02   -0.46868E+02  2016   0.283E+01
DAV:   5    -0.124295236323E+04   -0.13695E+01   -0.13663E+01  2412   0.418E+00    0.690E+01
RMM:   6    -0.123043108910E+04    0.12521E+02   -0.72132E+00  1588   0.306E+00    0.575E+01
RMM:   7    -0.119149038116E+04    0.38941E+02   -0.54242E+01  1588   0.837E+00    0.390E+01
RMM:   8    -0.118029278771E+04    0.11198E+02   -0.17369E+01  1597   0.471E+00    0.325E+01
RMM:   9    -0.117966466032E+04    0.62813E+00   -0.36944E+01  1588   0.684E+00    0.112E+01
RMM:  10    -0.117917115776E+04    0.49350E+00   -0.79021E-01  1670   0.121E+00    0.824E+00
RMM:  11    -0.117828145853E+04    0.88970E+00   -0.22248E+00  1586   0.157E+00    0.304E+00
RMM:  12    -0.117822127234E+04    0.60186E-01   -0.16413E-01  1587   0.463E-01    0.141E+00
RMM:  13    -0.117819564080E+04    0.25632E-01   -0.17709E-01  1584   0.470E-01    0.691E-01
RMM:  14    -0.117818804388E+04    0.75969E-02   -0.14704E-02  1630   0.128E-01    0.300E-01
RMM:  15    -0.117818726792E+04    0.77597E-03   -0.35263E-03  1664   0.496E-02    0.265E-01
RMM:  16    -0.117818746102E+04   -0.19310E-03   -0.12645E-03  1519   0.357E-02    0.152E-01
RMM:  17    -0.117818747623E+04   -0.15211E-04   -0.41114E-04  1243   0.219E-02
   1 F= -.11853465E+04 E0= -.11853465E+04  d E =-.118535E+04  mag=     2.0008
       N       E                     dE             d eps       ncg     rms          rms(c)
DAV:   1    -0.117818622961E+04    0.12314E-02   -0.72490E-01  1692   0.121E+00    0.470E-01
RMM:   2    -0.117818777083E+04   -0.15412E-02   -0.21348E-02  1610   0.180E-01    0.491E-01
RMM:   3    -0.117818765719E+04    0.11364E-03   -0.11376E-03  1540   0.384E-02    0.501E-01
RMM:   4    -0.117818777145E+04   -0.11426E-03   -0.24183E-04  1134   0.179E-02    0.493E-01
RMM:   5    -0.117819143673E+04   -0.36653E-02   -0.81076E-03  1604   0.820E-02    0.623E-01
RMM:   6    -0.117819467492E+04   -0.32382E-02   -0.33351E-03  1628   0.557E-02    0.852E-01
RMM:   7    -0.117819376653E+04    0.90839E-03   -0.12979E-04  1092   0.135E-02    0.811E-01
RMM:   8    -0.117818739149E+04    0.63750E-02   -0.18558E-02  1587   0.133E-01    0.165E-01
RMM:   9    -0.117818741430E+04   -0.22800E-04   -0.18768E-03  1586   0.421E-02    0.720E-02
RMM:  10    -0.117818743711E+04   -0.22818E-04   -0.98007E-05  1064   0.133E-02
   2 F= -.11853468E+04 E0= -.11853468E+04  d E =-.314749E-03  mag=     2.0000
       N       E                     dE             d eps       ncg     rms          rms(c)
DAV:   1    -0.117818840522E+04   -0.99093E-03   -0.17262E-01  1728   0.589E-01    0.212E-01
RMM:   2    -0.117818866661E+04   -0.26139E-03   -0.45468E-03  1599   0.841E-02    0.211E-01
RMM:   3    -0.117818861354E+04    0.53072E-04   -0.18503E-04  1091   0.165E-02
   3 F= -.11853478E+04 E0= -.11853478E+04  d E =-.131735E-02  mag=     2.0000
       N       E                     dE             d eps       ncg     rms          rms(c)
DAV:   1    -0.117818898554E+04   -0.31893E-03   -0.37921E-01  1656   0.796E-01    0.320E-01
RMM:   2    -0.117818948259E+04   -0.49704E-03   -0.80607E-03  1590   0.105E-01    0.342E-01
RMM:   3    -0.117818934590E+04    0.13668E-03   -0.32114E-04  1143   0.210E-02    0.355E-01
RMM:   4    -0.117818932944E+04    0.16465E-04   -0.27218E-04  1116   0.202E-02
   4 F= -.11853489E+04 E0= -.11853489E+04  d E =-.106783E-02  mag=     2.0000
       N       E                     dE             d eps       ncg     rms          rms(c)
DAV:   1    -0.117818927834E+04    0.67558E-04   -0.20203E-02  1764   0.185E-01    0.156E-01
RMM:   2    -0.117818927163E+04    0.67098E-05   -0.39326E-04  1067   0.218E-02
   5 F= -.11853489E+04 E0= -.11853489E+04  d E =-.109503E-02  mag=     2.0000
       N       E                     dE             d eps       ncg     rms          rms(c)
DAV:   1    -0.117818953913E+04   -0.26078E-03   -0.30302E-01  1728   0.778E-01    0.323E-01
RMM:   2    -0.117818972663E+04   -0.18750E-03   -0.66627E-03  1587   0.102E-01    0.307E-01
RMM:   3    -0.117818953384E+04    0.19279E-03   -0.27689E-04  1149   0.217E-02    0.264E-01
RMM:   4    -0.117818972999E+04   -0.19614E-03   -0.21229E-03  1584   0.499E-02    0.533E-02
RMM:   5    -0.117818966257E+04    0.67419E-04   -0.43175E-05  1007   0.989E-03
   6 F= -.11853496E+04 E0= -.11853496E+04  d E =-.726536E-03  mag=     2.0000
       N       E                     dE             d eps       ncg     rms          rms(c)
DAV:   1    -0.117818974267E+04   -0.12683E-04   -0.12249E-02  1800   0.157E-01    0.439E-02
RMM:   2    -0.117818973175E+04    0.10919E-04   -0.19470E-04  1028   0.181E-02
   7 F= -.11853496E+04 E0= -.11853496E+04  d E =-.726359E-03  mag=     2.0000
