       N       E                     dE             d eps       ncg     rms          rms(c)
DAV:   1     0.492987959252E+04    0.49299E+04   -0.17261E+05  1872   0.911E+02
DAV:   2    -0.406070512726E+02   -0.49705E+04   -0.45355E+04  2520   0.208E+02
DAV:   3    -0.118023586478E+04   -0.11396E+04   -0.11338E+04  2088   0.112E+02
DAV:   4    -0.123807401586E+04   -0.57838E+02   -0.57561E+02  2052   0.339E+01
DAV:   5    -0.124041966980E+04   -0.23457E+01   -0.23404E+01  2412   0.635E+00    0.611E+01
RMM:   6    -0.122680452413E+04    0.13615E+02   -0.73591E+00  1682   0.329E+00    0.496E+01
RMM:   7    -0.118733102278E+04    0.39474E+02   -0.57245E+01  1847   0.978E+00    0.296E+01
RMM:   8    -0.117747690898E+04    0.98541E+01   -0.14910E+01  1745   0.847E+00    0.225E+01
RMM:   9    -0.117412972174E+04    0.33472E+01   -0.33673E+01  1779   0.804E+00    0.100E+01
RMM:  10    -0.117501542815E+04   -0.88571E+00   -0.47002E+00  1809   0.751E+00    0.827E+00
RMM:  11    -0.117417143007E+04    0.84400E+00   -0.12914E+00  1917   0.168E+00    0.422E+00
RMM:  12    -0.117401047512E+04    0.16095E+00   -0.56210E-01  1713   0.131E+00    0.153E+00
RMM:  13    -0.117398381543E+04    0.26660E-01   -0.17502E-01  1851   0.956E-01    0.656E-01
RMM:  14    -0.117398167194E+04    0.21435E-02   -0.51187E-02  1910   0.303E-01    0.450E-01
RMM:  15    -0.117397888331E+04    0.27886E-02   -0.58077E-03  1807   0.153E-01    0.347E-01
RMM:  16    -0.117397872111E+04    0.16219E-03   -0.13732E-03  1535   0.701E-02    0.286E-01
RMM:  17    -0.117397894092E+04   -0.21981E-03   -0.15167E-03  1697   0.699E-02    0.186E-01
RMM:  18    -0.117397883661E+04    0.10431E-03   -0.61386E-04  1368   0.582E-02    0.127E-01
RMM:  19    -0.117397891043E+04   -0.73818E-04   -0.33739E-04  1190   0.430E-02
   1 F= -.11810190E+04 E0= -.11810190E+04  d E =-.118102E+04  mag=     2.0034
       N       E                     dE             d eps       ncg     rms          rms(c)
DAV:   1    -0.117397777942E+04    0.10572E-02   -0.32417E-01  1728   0.999E-01    0.196E-01
RMM:   2    -0.117397885249E+04   -0.10731E-02   -0.13661E-02  1851   0.157E-01    0.183E-01
RMM:   3    -0.117397870198E+04    0.15052E-03   -0.12599E-03  1416   0.109E-01    0.160E-01
RMM:   4    -0.117397840602E+04    0.29596E-03   -0.75041E-04  1459   0.459E-02    0.104E-01
RMM:   5    -0.117397836004E+04    0.45976E-04   -0.54567E-04  1384   0.556E-02
   2 F= -.11810186E+04 E0= -.11810186E+04  d E =0.428594E-03  mag=     1.9995
       N       E                     dE             d eps       ncg     rms          rms(c)
DAV:   1    -0.117397966181E+04   -0.12558E-02   -0.98401E-02  1800   0.546E-01    0.102E-01
RMM:   2    -0.117397982399E+04   -0.16218E-03   -0.33141E-03  1630   0.826E-02    0.878E-02
RMM:   3    -0.117397971142E+04    0.11257E-03   -0.41623E-04  1215   0.814E-02    0.770E-02
RMM:   4    -0.117397961235E+04    0.99070E-04   -0.22972E-04  1087   0.238E-02
   3 F= -.11810197E+04 E0= -.11810197E+04  d E =-.757736E-03  mag=     2.0000
