       N       E                     dE             d eps       ncg     rms          rms(c)
DAV:   1     0.482551805165E+04    0.48255E+04   -0.16891E+05  1836   0.901E+02
DAV:   2    -0.758013751685E+02   -0.49013E+04   -0.44573E+04  2520   0.207E+02
DAV:   3    -0.117483214385E+04   -0.10990E+04   -0.10937E+04  2196   0.108E+02
DAV:   4    -0.121855082494E+04   -0.43719E+02   -0.43539E+02  2088   0.282E+01
DAV:   5    -0.121966888291E+04   -0.11181E+01   -0.11166E+01  2412   0.418E+00    0.599E+01
RMM:   6    -0.120709334615E+04    0.12576E+02   -0.72206E+00  1584   0.315E+00    0.488E+01
RMM:   7    -0.116979551443E+04    0.37298E+02   -0.54110E+01  1584   0.846E+00    0.310E+01
RMM:   8    -0.116087377007E+04    0.89217E+01   -0.13232E+01  1584   0.420E+00    0.229E+01
RMM:   9    -0.115792181235E+04    0.29520E+01   -0.32645E+01  1584   0.650E+00    0.989E+00
RMM:  10    -0.115751662825E+04    0.40518E+00   -0.80411E-01  1646   0.118E+00    0.859E+00
RMM:  11    -0.115742323497E+04    0.93393E-01   -0.11699E+00  1584   0.107E+00    0.456E+00
RMM:  12    -0.115718667990E+04    0.23656E+00   -0.24206E-01  1584   0.556E-01    0.275E+00
RMM:  13    -0.115700818227E+04    0.17850E+00   -0.24996E-01  1584   0.506E-01    0.153E+00
RMM:  14    -0.115695956957E+04    0.48613E-01   -0.91370E-02  1594   0.291E-01    0.808E-01
RMM:  15    -0.115694563605E+04    0.13934E-01   -0.22893E-02  1640   0.122E-01    0.565E-01
RMM:  16    -0.115694273565E+04    0.29004E-02   -0.65451E-03  1580   0.591E-02    0.416E-01
RMM:  17    -0.115694096438E+04    0.17713E-02   -0.13361E-02  1591   0.871E-02    0.293E-01
RMM:  18    -0.115694134897E+04   -0.38459E-03   -0.21080E-03  1498   0.388E-02    0.150E-01
RMM:  19    -0.115694149604E+04   -0.14707E-03   -0.15961E-03  1382   0.335E-02    0.140E-01
RMM:  20    -0.115694144594E+04    0.50095E-04   -0.55777E-04  1279   0.210E-02
   1 F= -.11640522E+04 E0= -.11640470E+04  d E =-.116405E+04  mag=     0.8378
       N       E                     dE             d eps       ncg     rms          rms(c)
DAV:   1    -0.115694199389E+04   -0.49785E-03   -0.34764E-01  1728   0.953E-01    0.192E-01
RMM:   2    -0.115694267371E+04   -0.67982E-03   -0.12703E-02  1584   0.149E-01    0.182E-01
RMM:   3    -0.115694229044E+04    0.38326E-03   -0.68372E-04  1447   0.331E-02    0.165E-01
RMM:   4    -0.115694130644E+04    0.98400E-03   -0.38628E-03  1584   0.642E-02    0.679E-02
RMM:   5    -0.115694124480E+04    0.61645E-04   -0.12034E-04  1057   0.156E-02
   2 F= -.11640521E+04 E0= -.11640472E+04  d E =0.148548E-03  mag=     0.8572
       N       E                     dE             d eps       ncg     rms          rms(c)
DAV:   1    -0.115694255136E+04   -0.12449E-02   -0.89568E-02  1656   0.479E-01    0.870E-02
RMM:   2    -0.115694258665E+04   -0.35295E-04   -0.18992E-03  1584   0.648E-02    0.828E-02
RMM:   3    -0.115694246937E+04    0.11729E-03   -0.92233E-05  1026   0.138E-02    0.725E-02
RMM:   4    -0.115694224350E+04    0.22587E-03   -0.11090E-03  1582   0.349E-02    0.268E-02
RMM:   5    -0.115694223345E+04    0.10053E-04   -0.19967E-05  1003   0.697E-03
   3 F= -.11640530E+04 E0= -.11640482E+04  d E =-.811536E-03  mag=     0.8593
