       N       E                     dE             d eps       ncg     rms          rms(c)
DAV:   1     0.632650071111E+04    0.63265E+04   -0.16528E+05  1744   0.997E+02
DAV:   2     0.752562905458E+03   -0.55739E+04   -0.50267E+04  2696   0.257E+02
DAV:   3    -0.110479361924E+04   -0.18574E+04   -0.18051E+04  2504   0.147E+02
DAV:   4    -0.124949753112E+04   -0.14470E+03   -0.14242E+03  2112   0.492E+01
DAV:   5    -0.125544852861E+04   -0.59510E+01   -0.58729E+01  2616   0.131E+01    0.819E+01
RMM:   6    -0.123464769113E+04    0.20801E+02   -0.12058E+01  2033   0.707E+00    0.610E+01
RMM:   7    -0.120379093830E+04    0.30857E+02   -0.52974E+01  2021   0.103E+01    0.350E+01
RMM:   8    -0.118870402454E+04    0.15087E+02   -0.33356E+01  1952   0.789E+00    0.255E+01
RMM:   9    -0.118511767416E+04    0.35864E+01   -0.24861E+01  2020   0.831E+00    0.165E+01
RMM:  10    -0.118690035957E+04   -0.17827E+01   -0.73439E+00  2014   0.432E+00    0.946E+00
RMM:  11    -0.118608995955E+04    0.81040E+00   -0.11651E+00  1972   0.169E+00    0.647E+00
RMM:  12    -0.118546012428E+04    0.62984E+00   -0.24327E+00  1983   0.220E+00    0.157E+00
RMM:  13    -0.118546918241E+04   -0.90581E-02   -0.27594E-01  2022   0.962E-01    0.114E+00
RMM:  14    -0.118543960940E+04    0.29573E-01   -0.95763E-02  2031   0.474E-01    0.634E-01
RMM:  15    -0.118544169906E+04   -0.20897E-02   -0.41792E-02  2045   0.283E-01    0.235E-01
RMM:  16    -0.118544126499E+04    0.43407E-03   -0.50615E-03  2051   0.125E-01    0.182E-01
RMM:  17    -0.118544194792E+04   -0.68293E-03   -0.73164E-03  2067   0.113E-01    0.159E-01
RMM:  18    -0.118544181546E+04    0.13247E-03   -0.15230E-03  2003   0.576E-02    0.111E-01
RMM:  19    -0.118544175528E+04    0.60180E-04   -0.57415E-04  2080   0.316E-02    0.907E-02
RMM:  20    -0.118544178828E+04   -0.33009E-04   -0.31590E-04  2006   0.239E-02    0.674E-02
RMM:  21    -0.118544177966E+04    0.86285E-05   -0.56703E-04  2066   0.300E-02    0.210E-02
RMM:  22    -0.118544180186E+04   -0.22200E-04   -0.11907E-04  2137   0.161E-02    0.191E-02
RMM:  23    -0.118544180868E+04   -0.68260E-05   -0.38612E-05  1539   0.792E-03    0.152E-02
RMM:  24    -0.118544181090E+04   -0.22194E-05   -0.19387E-05  1201   0.123E-02    0.167E-02
RMM:  25    -0.118544181090E+04    0.46712E-08   -0.14962E-05  1207   0.143E-02    0.682E-03
RMM:  26    -0.118544181288E+04   -0.19880E-05   -0.99613E-06  1263   0.177E-02    0.658E-03
RMM:  27    -0.118544181386E+04   -0.97364E-06   -0.90619E-06  1314   0.171E-02
   1 F= -.11929129E+04 E0= -.11929129E+04  d E =-.119291E+04  mag=    -0.0002
       N       E                     dE             d eps       ncg     rms          rms(c)
DAV:   1    -0.118544207878E+04   -0.26589E-03   -0.10130E-02  2280   0.235E-01    0.806E-02
RMM:   2    -0.118544211366E+04   -0.34879E-04   -0.47206E-04  2192   0.338E-02    0.718E-02
RMM:   3    -0.118544211657E+04   -0.29075E-05   -0.81266E-05  2048   0.156E-02    0.469E-02
RMM:   4    -0.118544212770E+04   -0.11137E-04   -0.52393E-05  2019   0.136E-02    0.146E-02
RMM:   5    -0.118544212496E+04    0.27396E-05   -0.89621E-06  1321   0.888E-03    0.131E-02
RMM:   6    -0.118544212326E+04    0.17081E-05   -0.22569E-06  1082   0.881E-03    0.108E-02
RMM:   7    -0.118544212220E+04    0.10580E-05   -0.12245E-06  1085   0.132E-02    0.641E-03
RMM:   8    -0.118544212187E+04    0.32785E-06   -0.39259E-06  1179   0.164E-02
   2 F= -.11929132E+04 E0= -.11929132E+04  d E =-.261231E-03  mag=    -0.0000
