       N       E                     dE             d eps       ncg     rms          rms(c)
DAV:   1     0.467934976387E+04    0.46793E+04   -0.17840E+05  1888   0.946E+02
DAV:   2    -0.786015068338E+02   -0.47580E+04   -0.43421E+04  2400   0.212E+02
DAV:   3    -0.119936603277E+04   -0.11208E+04   -0.11149E+04  1984   0.111E+02
DAV:   4    -0.124644128667E+04   -0.47075E+02   -0.46791E+02  1888   0.300E+01
DAV:   5    -0.124767214054E+04   -0.12309E+01   -0.12280E+01  2368   0.459E+00    0.726E+01
RMM:   6    -0.122812190983E+04    0.19550E+02   -0.18429E+01  1580   0.514E+00    0.507E+01
RMM:   7    -0.121171305747E+04    0.16409E+02   -0.14743E+01  1539   0.480E+00    0.401E+01
RMM:   8    -0.118335304598E+04    0.28360E+02   -0.44359E+01  1602   0.839E+00    0.245E+01
RMM:   9    -0.117777233310E+04    0.55807E+01   -0.20511E+01  1539   0.607E+00    0.162E+01
RMM:  10    -0.117838606574E+04   -0.61373E+00   -0.90865E+00  1539   0.424E+00    0.899E+00
RMM:  11    -0.117860936153E+04   -0.22330E+00   -0.14430E+00  1608   0.195E+00    0.755E+00
RMM:  12    -0.117799087611E+04    0.61849E+00   -0.97335E-01  1541   0.129E+00    0.314E+00
RMM:  13    -0.117783424440E+04    0.15663E+00   -0.43263E-01  1536   0.891E-01    0.152E+00
RMM:  14    -0.117783300466E+04    0.12397E-02   -0.10478E-01  1611   0.486E-01    0.709E-01
RMM:  15    -0.117782966690E+04    0.33378E-02   -0.30674E-02  1560   0.256E-01    0.394E-01
RMM:  16    -0.117783020262E+04   -0.53572E-03   -0.10983E-02  1610   0.152E-01    0.282E-01
RMM:  17    -0.117783066585E+04   -0.46322E-03   -0.37829E-03  1871   0.836E-02    0.210E-01
RMM:  18    -0.117783070796E+04   -0.42117E-04   -0.80744E-04  1903   0.341E-02    0.147E-01
RMM:  19    -0.117783076851E+04   -0.60548E-04   -0.33129E-04  1581   0.218E-02    0.964E-02
RMM:  20    -0.117783085768E+04   -0.89166E-04   -0.23129E-04  1586   0.191E-02    0.577E-02
RMM:  21    -0.117783088323E+04   -0.25550E-04   -0.61909E-05  1570   0.110E-02    0.294E-02
RMM:  22    -0.117783088316E+04    0.64130E-07   -0.24457E-05  1683   0.657E-03    0.220E-02
RMM:  23    -0.117783088449E+04   -0.13295E-05   -0.10103E-05  1569   0.403E-03    0.149E-02
RMM:  24    -0.117783088148E+04    0.30089E-05   -0.99686E-06  1489   0.379E-03    0.805E-03
RMM:  25    -0.117783087978E+04    0.16995E-05   -0.33250E-06  1100   0.220E-03    0.744E-03
RMM:  26    -0.117783087957E+04    0.21914E-06   -0.10602E-06  1034   0.126E-03
   1 F= -.11849159E+04 E0= -.11849136E+04  d E =-.118492E+04  mag=     2.9430
       N       E                     dE             d eps       ncg     rms          rms(c)
DAV:   1    -0.117782988182E+04    0.99796E-03   -0.23480E-01  1728   0.892E-01    0.154E-01
RMM:   2    -0.117783061855E+04   -0.73673E-03   -0.90681E-03  1565   0.141E-01    0.140E-01
RMM:   3    -0.117783070695E+04   -0.88395E-04   -0.20341E-03  1724   0.584E-02    0.121E-01
RMM:   4    -0.117783057504E+04    0.13191E-03   -0.29718E-04  1694   0.247E-02    0.101E-01
RMM:   5    -0.117783043681E+04    0.13822E-03   -0.36778E-04  1538   0.242E-02    0.574E-02
RMM:   6    -0.117783043141E+04    0.54004E-05   -0.16703E-04  1553   0.172E-02    0.429E-02
RMM:   7    -0.117783042320E+04    0.82099E-05   -0.35877E-05  1589   0.897E-03    0.253E-02
RMM:   8    -0.117783042639E+04   -0.31833E-05   -0.25526E-05  1569   0.628E-03    0.168E-02
RMM:   9    -0.117783042414E+04    0.22499E-05   -0.88241E-06  1518   0.398E-03    0.113E-02
RMM:  10    -0.117783042542E+04   -0.12822E-05   -0.11091E-05  1517   0.406E-03    0.647E-03
RMM:  11    -0.117783042462E+04    0.79278E-06   -0.33650E-06  1261   0.234E-03
   2 F= -.11849161E+04 E0= -.11849136E+04  d E =-.171394E-03  mag=     2.9385
       N       E                     dE             d eps       ncg     rms          rms(c)
DAV:   1    -0.117783098500E+04   -0.55958E-03   -0.47562E-02  1760   0.399E-01    0.694E-02
RMM:   2    -0.117783109801E+04   -0.11301E-03   -0.15358E-03  1548   0.608E-02    0.626E-02
RMM:   3    -0.117783110282E+04   -0.48165E-05   -0.32713E-04  1626   0.240E-02    0.535E-02
RMM:   4    -0.117783107346E+04    0.29364E-04   -0.53142E-05  1648   0.106E-02    0.440E-02
RMM:   5    -0.117783104489E+04    0.28570E-04   -0.70891E-05  1540   0.106E-02    0.244E-02
RMM:   6    -0.117783104293E+04    0.19626E-05   -0.30872E-05  1553   0.745E-03    0.180E-02
RMM:   7    -0.117783104137E+04    0.15540E-05   -0.59144E-06  1451   0.371E-03    0.109E-02
RMM:   8    -0.117783104120E+04    0.16671E-06   -0.42018E-06  1345   0.263E-03
   3 F= -.11849164E+04 E0= -.11849140E+04  d E =-.506877E-03  mag=     2.9405
       N       E                     dE             d eps       ncg     rms          rms(c)
DAV:   1    -0.117783108043E+04   -0.39063E-04   -0.12332E-01  1952   0.639E-01    0.107E-01
RMM:   2    -0.117783132975E+04   -0.24931E-03   -0.34049E-03  1556   0.885E-02    0.873E-02
RMM:   3    -0.117783132853E+04    0.12196E-05   -0.69036E-04  1583   0.352E-02    0.731E-02
RMM:   4    -0.117783125493E+04    0.73598E-04   -0.16788E-04  1608   0.185E-02    0.526E-02
RMM:   5    -0.117783120259E+04    0.52344E-04   -0.17580E-04  1539   0.171E-02    0.281E-02
RMM:   6    -0.117783120575E+04   -0.31642E-05   -0.33871E-05  1593   0.883E-03    0.206E-02
RMM:   7    -0.117783120804E+04   -0.22924E-05   -0.14570E-05  1538   0.542E-03    0.115E-02
RMM:   8    -0.117783120886E+04   -0.81539E-06   -0.48863E-06  1336   0.308E-03
   4 F= -.11849169E+04 E0= -.11849144E+04  d E =-.433230E-03  mag=     2.9375
       N       E                     dE             d eps       ncg     rms          rms(c)
DAV:   1    -0.117783123453E+04   -0.26483E-04   -0.95435E-04  1920   0.568E-02    0.100E-02
RMM:   2    -0.117783123638E+04   -0.18515E-05   -0.26375E-05  1555   0.779E-03    0.810E-03
RMM:   3    -0.117783123596E+04    0.41851E-06   -0.56269E-06  1131   0.314E-03
   5 F= -.11849169E+04 E0= -.11849144E+04  d E =-.436563E-03  mag=     2.9376
       N       E                     dE             d eps       ncg     rms          rms(c)
DAV:   1    -0.117783101554E+04    0.22083E-03   -0.90399E-02  1792   0.571E-01    0.823E-02
RMM:   2    -0.117783131551E+04   -0.29997E-03   -0.32306E-03  1556   0.820E-02    0.642E-02
RMM:   3    -0.117783138514E+04   -0.69632E-04   -0.75717E-04  1611   0.328E-02    0.487E-02
RMM:   4    -0.117783138533E+04   -0.19424E-06   -0.85431E-05  1802   0.130E-02    0.434E-02
RMM:   5    -0.117783137736E+04    0.79787E-05   -0.31439E-05  1545   0.778E-03    0.267E-02
RMM:   6    -0.117783138038E+04   -0.30200E-05   -0.39576E-05  1552   0.802E-03    0.143E-02
RMM:   7    -0.117783138263E+04   -0.22495E-05   -0.50956E-06  1475   0.370E-03    0.768E-03
RMM:   8    -0.117783138377E+04   -0.11425E-05   -0.23382E-06  1063   0.212E-03    0.476E-03
RMM:   9    -0.117783138346E+04    0.31119E-06   -0.10642E-06  1018   0.141E-03
   6 F= -.11849172E+04 E0= -.11849147E+04  d E =-.322345E-03  mag=     2.9376
