       N       E                     dE             d eps       ncg     rms          rms(c)
DAV:   1     0.487543412452E+04    0.48754E+04   -0.17685E+05  1856   0.950E+02
DAV:   2    -0.273976673964E+02   -0.49028E+04   -0.44787E+04  2432   0.212E+02
DAV:   3    -0.119547435610E+04   -0.11681E+04   -0.11628E+04  2016   0.113E+02
DAV:   4    -0.124482073305E+04   -0.49346E+02   -0.49006E+02  1952   0.307E+01
DAV:   5    -0.124608501105E+04   -0.12643E+01   -0.12604E+01  2304   0.458E+00    0.734E+01
RMM:   6    -0.122794404586E+04    0.18141E+02   -0.10630E+01  1606   0.395E+00    0.561E+01
RMM:   7    -0.120001713351E+04    0.27927E+02   -0.49571E+01  1590   0.842E+00    0.382E+01
RMM:   8    -0.118892365877E+04    0.11093E+02   -0.12297E+01  1553   0.497E+00    0.295E+01
RMM:   9    -0.117883540610E+04    0.10088E+02   -0.20642E+01  1568   0.575E+00    0.194E+01
RMM:  10    -0.117814728322E+04    0.68812E+00   -0.12020E+01  1558   0.462E+00    0.129E+01
RMM:  11    -0.117962046417E+04   -0.14732E+01   -0.33907E+00  1617   0.267E+00    0.770E+00
RMM:  12    -0.117894192797E+04    0.67854E+00   -0.59774E-01  1566   0.117E+00    0.558E+00
RMM:  13    -0.117847081278E+04    0.47112E+00   -0.58429E-01  1537   0.984E-01    0.348E+00
RMM:  14    -0.117833081080E+04    0.14000E+00   -0.77754E-01  1545   0.112E+00    0.105E+00
RMM:  15    -0.117833188061E+04   -0.10698E-02   -0.69609E-02  1589   0.435E-01    0.675E-01
RMM:  16    -0.117833255445E+04   -0.67383E-03   -0.20694E-02  1618   0.216E-01    0.545E-01
RMM:  17    -0.117833203342E+04    0.52103E-03   -0.48849E-03  1720   0.107E-01    0.446E-01
RMM:  18    -0.117833223779E+04   -0.20437E-03   -0.28628E-03  1674   0.726E-02    0.312E-01
RMM:  19    -0.117833255310E+04   -0.31532E-03   -0.28479E-03  1559   0.729E-02    0.162E-01
RMM:  20    -0.117833246551E+04    0.87592E-04   -0.37906E-04  1555   0.307E-02    0.843E-02
RMM:  21    -0.117833246686E+04   -0.13526E-05   -0.44984E-04  1559   0.267E-02    0.406E-02
RMM:  22    -0.117833242516E+04    0.41708E-04   -0.15500E-04  1545   0.165E-02    0.254E-02
RMM:  23    -0.117833242740E+04   -0.22469E-05   -0.46624E-05  1603   0.928E-03    0.173E-02
RMM:  24    -0.117833242434E+04    0.30666E-05   -0.16158E-05  1549   0.557E-03    0.712E-03
RMM:  25    -0.117833242161E+04    0.27254E-05   -0.51894E-06  1363   0.317E-03    0.508E-03
RMM:  26    -0.117833242142E+04    0.18810E-06   -0.11035E-06  1028   0.158E-03
   1 F= -.11854829E+04 E0= -.11854776E+04  d E =-.118548E+04  mag=    -0.8414
       N       E                     dE             d eps       ncg     rms          rms(c)
DAV:   1    -0.117833056248E+04    0.18591E-02   -0.35498E-01  1536   0.966E-01    0.223E-01
RMM:   2    -0.117833134694E+04   -0.78446E-03   -0.99629E-03  1668   0.150E-01    0.198E-01
RMM:   3    -0.117833131098E+04    0.35964E-04   -0.21692E-03  1871   0.658E-02    0.162E-01
RMM:   4    -0.117833125666E+04    0.54323E-04   -0.91971E-04  1619   0.387E-02    0.938E-02
RMM:   5    -0.117833123152E+04    0.25131E-04   -0.18824E-04  1861   0.191E-02    0.450E-02
RMM:   6    -0.117833122966E+04    0.18670E-05   -0.84640E-05  1591   0.980E-03    0.192E-02
RMM:   7    -0.117833122294E+04    0.67184E-05   -0.19525E-05  1549   0.552E-03    0.140E-02
RMM:   8    -0.117833122210E+04    0.83418E-06   -0.31413E-05  1554   0.628E-03    0.690E-03
RMM:   9    -0.117833122147E+04    0.63047E-06   -0.34982E-06  1245   0.290E-03
   2 F= -.11854825E+04 E0= -.11854772E+04  d E =0.344830E-03  mag=    -0.8386
       N       E                     dE             d eps       ncg     rms          rms(c)
DAV:   1    -0.117833250677E+04   -0.12847E-02   -0.11090E-01  1664   0.538E-01    0.126E-01
RMM:   2    -0.117833269706E+04   -0.19028E-03   -0.26337E-03  1639   0.811E-02    0.111E-01
RMM:   3    -0.117833267042E+04    0.26633E-04   -0.58604E-04  1745   0.350E-02    0.883E-02
RMM:   4    -0.117833266362E+04    0.68070E-05   -0.27461E-04  1619   0.211E-02    0.528E-02
RMM:   5    -0.117833265144E+04    0.12180E-04   -0.57846E-05  1833   0.103E-02    0.225E-02
RMM:   6    -0.117833265304E+04   -0.16037E-05   -0.23903E-05  1496   0.534E-03    0.107E-02
RMM:   7    -0.117833265091E+04    0.21269E-05   -0.66562E-06  1342   0.314E-03    0.805E-03
RMM:   8    -0.117833265054E+04    0.37614E-06   -0.87753E-06  1497   0.335E-03
   3 F= -.11854835E+04 E0= -.11854782E+04  d E =-.606674E-03  mag=    -0.8399
       N       E                     dE             d eps       ncg     rms          rms(c)
DAV:   1    -0.117833277283E+04   -0.12191E-03   -0.22853E-01  1792   0.766E-01    0.100E-01
RMM:   2    -0.117833306528E+04   -0.29246E-03   -0.37791E-03  1653   0.984E-02    0.865E-02
RMM:   3    -0.117833309324E+04   -0.27953E-04   -0.82929E-04  1675   0.429E-02    0.711E-02
RMM:   4    -0.117833307908E+04    0.14160E-04   -0.28271E-04  1673   0.233E-02    0.354E-02
RMM:   5    -0.117833308658E+04   -0.75034E-05   -0.68331E-05  1772   0.114E-02    0.206E-02
RMM:   6    -0.117833308640E+04    0.17894E-06   -0.18317E-05  1649   0.562E-03    0.101E-02
RMM:   7    -0.117833308701E+04   -0.61140E-06   -0.40866E-06  1215   0.268E-03
   4 F= -.11854842E+04 E0= -.11854789E+04  d E =-.704645E-03  mag=    -0.8383
       N       E                     dE             d eps       ncg     rms          rms(c)
DAV:   1    -0.117833309640E+04   -0.99957E-05   -0.31826E-04  1728   0.289E-02    0.475E-03
RMM:   2    -0.117833309674E+04   -0.34825E-06   -0.43096E-06  1203   0.332E-03
   5 F= -.11854842E+04 E0= -.11854789E+04  d E =-.703940E-03  mag=    -0.8384
       N       E                     dE             d eps       ncg     rms          rms(c)
DAV:   1    -0.117833335715E+04   -0.26075E-03   -0.11352E-01  1664   0.546E-01    0.772E-02
RMM:   2    -0.117833351877E+04   -0.16163E-03   -0.19925E-03  1688   0.721E-02    0.666E-02
RMM:   3    -0.117833354063E+04   -0.21857E-04   -0.46922E-04  1642   0.318E-02    0.535E-02
RMM:   4    -0.117833354496E+04   -0.43317E-05   -0.19986E-04  1614   0.198E-02    0.165E-02
RMM:   5    -0.117833354758E+04   -0.26199E-05   -0.34275E-05  1975   0.826E-03    0.134E-02
RMM:   6    -0.117833354503E+04    0.25562E-05   -0.82825E-06  1512   0.367E-03    0.834E-03
RMM:   7    -0.117833354556E+04   -0.53718E-06   -0.23610E-06  1075   0.208E-03
   6 F= -.11854848E+04 E0= -.11854794E+04  d E =-.625053E-03  mag=    -0.8358
       N       E                     dE             d eps       ncg     rms          rms(c)
DAV:   1    -0.117833349640E+04    0.48624E-04   -0.45828E-02  1664   0.347E-01    0.500E-02
RMM:   2    -0.117833356035E+04   -0.63953E-04   -0.81297E-04  1687   0.462E-02    0.434E-02
RMM:   3    -0.117833356917E+04   -0.88201E-05   -0.19076E-04  1645   0.204E-02    0.350E-02
RMM:   4    -0.117833357330E+04   -0.41291E-05   -0.86665E-05  1614   0.130E-02    0.109E-02
RMM:   5    -0.117833357417E+04   -0.86950E-06   -0.14282E-05  1833   0.539E-03    0.898E-03
RMM:   6    -0.117833357295E+04    0.12225E-05   -0.43561E-06  1383   0.265E-03    0.515E-03
RMM:   7    -0.117833357324E+04   -0.28736E-06   -0.91302E-07  1011   0.142E-03
   7 F= -.11854850E+04 E0= -.11854795E+04  d E =-.764309E-03  mag=    -0.8341
