       N       E                     dE             d eps       ncg     rms          rms(c)
DAV:   1     0.484149263467E+04    0.48415E+04   -0.17249E+05  1872   0.909E+02
DAV:   2    -0.815357092613E+02   -0.49230E+04   -0.44946E+04  2556   0.205E+02
DAV:   3    -0.119941875606E+04   -0.11179E+04   -0.11136E+04  2124   0.108E+02
DAV:   4    -0.124400468209E+04   -0.44586E+02   -0.44395E+02  1980   0.284E+01
DAV:   5    -0.124517166967E+04   -0.11670E+01   -0.11650E+01  2340   0.431E+00    0.834E+01
RMM:   6    -0.123170130080E+04    0.13470E+02   -0.78454E+00  1584   0.312E+00    0.729E+01
RMM:   7    -0.118381596314E+04    0.47885E+02   -0.92037E+01  1584   0.106E+01    0.476E+01
RMM:   8    -0.118003325345E+04    0.37827E+01   -0.52024E+01  1584   0.804E+00    0.230E+01
RMM:   9    -0.118256185445E+04   -0.25286E+01   -0.10027E+01  1586   0.365E+00    0.121E+01
RMM:  10    -0.117957817002E+04    0.29837E+01   -0.35952E+00  1584   0.196E+00    0.722E+00
RMM:  11    -0.117882355193E+04    0.75462E+00   -0.11326E+00  1584   0.110E+00    0.428E+00
RMM:  12    -0.117855111219E+04    0.27244E+00   -0.97957E-01  1584   0.107E+00    0.266E+00
RMM:  13    -0.117848998270E+04    0.61129E-01   -0.11638E-01  1587   0.368E-01    0.125E+00
RMM:  14    -0.117848654048E+04    0.34422E-02   -0.33479E-02  1619   0.179E-01    0.718E-01
RMM:  15    -0.117848174803E+04    0.47924E-02   -0.22694E-02  1585   0.167E-01    0.628E-01
RMM:  16    -0.117848141323E+04    0.33480E-03   -0.44473E-03  1613   0.715E-02    0.345E-01
RMM:  17    -0.117848121411E+04    0.19912E-03   -0.35506E-03  1552   0.517E-02    0.240E-01
RMM:  18    -0.117848137872E+04   -0.16461E-03   -0.82525E-04  1546   0.304E-02    0.117E-01
RMM:  19    -0.117848134310E+04    0.35619E-04   -0.34301E-04  1190   0.197E-02
   1 F= -.11858835E+04 E0= -.11858720E+04  d E =-.118588E+04  mag=    -0.9847
       N       E                     dE             d eps       ncg     rms          rms(c)
DAV:   1    -0.117848045876E+04    0.91996E-03   -0.60233E-01  1620   0.110E+00    0.877E-01
RMM:   2    -0.117848166902E+04   -0.12103E-02   -0.18131E-02  1584   0.160E-01    0.794E-01
RMM:   3    -0.117848133935E+04    0.32967E-03   -0.10238E-03  1483   0.373E-02    0.667E-01
RMM:   4    -0.117848114730E+04    0.19205E-03   -0.34065E-03  1584   0.602E-02    0.158E-01
RMM:   5    -0.117848111881E+04    0.28487E-04   -0.15354E-04  1066   0.163E-02
   2 F= -.11858841E+04 E0= -.11858722E+04  d E =-.549799E-03  mag=    -0.9779
       N       E                     dE             d eps       ncg     rms          rms(c)
DAV:   1    -0.117848236901E+04   -0.12217E-02   -0.10144E-01  1764   0.452E-01    0.359E-01
RMM:   2    -0.117848243649E+04   -0.67484E-04   -0.24263E-03  1586   0.593E-02    0.306E-01
RMM:   3    -0.117848228297E+04    0.15352E-03   -0.19402E-04  1065   0.170E-02    0.233E-01
RMM:   4    -0.117848223458E+04    0.48387E-04   -0.90396E-04  1546   0.320E-02
   3 F= -.11858848E+04 E0= -.11858730E+04  d E =-.134452E-02  mag=    -0.9745
       N       E                     dE             d eps       ncg     rms          rms(c)
DAV:   1    -0.117848360474E+04   -0.13218E-02   -0.13889E-01  1692   0.535E-01    0.338E-01
RMM:   2    -0.117848362169E+04   -0.16944E-04   -0.24094E-03  1584   0.654E-02    0.311E-01
RMM:   3    -0.117848349383E+04    0.12785E-03   -0.14691E-04  1063   0.160E-02    0.260E-01
RMM:   4    -0.117848340598E+04    0.87857E-04   -0.91164E-04  1550   0.311E-02
   4 F= -.11858862E+04 E0= -.11858744E+04  d E =-.135298E-02  mag=    -0.9769
       N       E                     dE             d eps       ncg     rms          rms(c)
DAV:   1    -0.117848368949E+04   -0.19566E-03   -0.14184E-01  1728   0.542E-01    0.357E-01
RMM:   2    -0.117848378967E+04   -0.10018E-03   -0.25039E-03  1584   0.671E-02    0.332E-01
RMM:   3    -0.117848374047E+04    0.49199E-04   -0.11468E-04  1064   0.146E-02
   5 F= -.11858867E+04 E0= -.11858747E+04  d E =-.187093E-02  mag=    -0.9752
       N       E                     dE             d eps       ncg     rms          rms(c)
DAV:   1    -0.117848485092E+04   -0.10612E-02   -0.12275E-01  1728   0.531E-01    0.274E-01
RMM:   2    -0.117848495314E+04   -0.10222E-03   -0.25421E-03  1584   0.693E-02    0.180E-01
RMM:   3    -0.117848485215E+04    0.10099E-03   -0.16142E-04  1076   0.171E-02    0.128E-01
RMM:   4    -0.117848482521E+04    0.26944E-04   -0.47833E-04  1394   0.246E-02
   6 F= -.11858878E+04 E0= -.11858756E+04  d E =-.104286E-02  mag=    -0.9747
       N       E                     dE             d eps       ncg     rms          rms(c)
DAV:   1    -0.117848489464E+04   -0.42492E-04   -0.93792E-03  1872   0.147E-01    0.996E-02
RMM:   2    -0.117848489815E+04   -0.35120E-05   -0.20081E-04  1072   0.204E-02
   7 F= -.11858878E+04 E0= -.11858756E+04  d E =-.110390E-02  mag=    -0.9741
       N       E                     dE             d eps       ncg     rms          rms(c)
DAV:   1    -0.117848565235E+04   -0.75770E-03   -0.11493E-01  1728   0.501E-01    0.297E-01
RMM:   2    -0.117848573905E+04   -0.86704E-04   -0.24368E-03  1584   0.666E-02    0.201E-01
RMM:   3    -0.117848569178E+04    0.47267E-04   -0.16837E-04  1085   0.170E-02
   8 F= -.11858887E+04 E0= -.11858762E+04  d E =-.892910E-03  mag=    -0.9730
       N       E                     dE             d eps       ncg     rms          rms(c)
DAV:   1    -0.117848563569E+04    0.10336E-03   -0.83597E-02  1728   0.428E-01    0.262E-01
RMM:   2    -0.117848569832E+04   -0.62629E-04   -0.16435E-03  1544   0.538E-02    0.180E-01
RMM:   3    -0.117848568948E+04    0.88447E-05   -0.91384E-05  1051   0.134E-02
   9 F= -.11858888E+04 E0= -.11858760E+04  d E =-.975778E-03  mag=    -0.9721
