       N       E                     dE             d eps       ncg     rms          rms(c)
DAV:   1     0.495533432142E+04    0.49553E+04   -0.16939E+05  1800   0.907E+02
DAV:   2    -0.283245213084E+02   -0.49837E+04   -0.45377E+04  2520   0.209E+02
DAV:   3    -0.117636785103E+04   -0.11480E+04   -0.11409E+04  2160   0.111E+02
DAV:   4    -0.122282852387E+04   -0.46461E+02   -0.46224E+02  2088   0.292E+01
DAV:   5    -0.122399597277E+04   -0.11674E+01   -0.11651E+01  2376   0.427E+00    0.642E+01
RMM:   6    -0.121225313565E+04    0.11743E+02   -0.26225E+01  1584   0.518E+00    0.520E+01
RMM:   7    -0.119906841141E+04    0.13185E+02   -0.55320E+00  1584   0.281E+00    0.436E+01
RMM:   8    -0.116673581673E+04    0.32333E+02   -0.56256E+01  1584   0.856E+00    0.251E+01
RMM:   9    -0.116104951430E+04    0.56863E+01   -0.10852E+01  1584   0.384E+00    0.182E+01
RMM:  10    -0.116145568834E+04   -0.40617E+00   -0.13715E+01  1584   0.420E+00    0.931E+00
RMM:  11    -0.116124376517E+04    0.21192E+00   -0.13748E+00  1599   0.142E+00    0.686E+00
RMM:  12    -0.116092837909E+04    0.31539E+00   -0.34368E+00  1584   0.180E+00    0.630E+00
RMM:  13    -0.116026017469E+04    0.66820E+00   -0.99642E-01  1584   0.893E-01    0.147E+00
RMM:  14    -0.116024341697E+04    0.16758E-01   -0.24204E-02  1593   0.175E-01    0.115E+00
RMM:  15    -0.116019688356E+04    0.46533E-01   -0.29526E-02  1590   0.148E-01    0.582E-01
RMM:  16    -0.116020729790E+04   -0.10414E-01   -0.25425E-03  1544   0.498E-02    0.655E-01
RMM:  17    -0.116018976412E+04    0.17534E-01   -0.11315E-02  1584   0.970E-02    0.303E-01
RMM:  18    -0.116018990559E+04   -0.14148E-03   -0.11174E-03  1547   0.369E-02    0.265E-01
RMM:  19    -0.116018734083E+04    0.25648E-02   -0.35130E-03  1402   0.422E-02    0.102E-01
RMM:  20    -0.116018738646E+04   -0.45630E-04   -0.34242E-04  1138   0.186E-02
   1 F= -.11672884E+04 E0= -.11672884E+04  d E =-.116729E+04  mag=     0.0006
       N       E                     dE             d eps       ncg     rms          rms(c)
DAV:   1    -0.116018598539E+04    0.13554E-02   -0.81905E-01  1728   0.137E+00    0.215E-01
RMM:   2    -0.116018786594E+04   -0.18805E-02   -0.25057E-02  1585   0.217E-01    0.203E-01
RMM:   3    -0.116018769539E+04    0.17055E-03   -0.13756E-03  1597   0.462E-02    0.192E-01
RMM:   4    -0.116018690185E+04    0.79354E-03   -0.32528E-03  1584   0.591E-02    0.879E-02
RMM:   5    -0.116018691344E+04   -0.11585E-04   -0.51745E-04  1405   0.263E-02
   2 F= -.11672880E+04 E0= -.11672880E+04  d E =0.423027E-03  mag=     0.0001
       N       E                     dE             d eps       ncg     rms          rms(c)
DAV:   1    -0.116018885054E+04   -0.19487E-02   -0.22822E-01  1692   0.716E-01    0.857E-02
RMM:   2    -0.116018913282E+04   -0.28228E-03   -0.39301E-03  1585   0.942E-02    0.779E-02
RMM:   3    -0.116018908949E+04    0.43331E-04   -0.20766E-04  1127   0.194E-02
   3 F= -.11672901E+04 E0= -.11672901E+04  d E =-.172343E-02  mag=    -0.0000
       N       E                     dE             d eps       ncg     rms          rms(c)
DAV:   1    -0.116018841735E+04    0.71547E-03   -0.42213E-01  1764   0.880E-01    0.134E-01
RMM:   2    -0.116018887287E+04   -0.45552E-03   -0.59748E-03  1584   0.116E-01    0.121E-01
RMM:   3    -0.116018880366E+04    0.69209E-04   -0.34475E-04  1191   0.245E-02
   4 F= -.11672901E+04 E0= -.11672901E+04  d E =-.288290E-04  mag=     0.0000
       N       E                     dE             d eps       ncg     rms          rms(c)
DAV:   1    -0.116018920560E+04   -0.33273E-03   -0.80549E-02  1692   0.389E-01    0.391E-02
RMM:   2    -0.116018936757E+04   -0.16197E-03   -0.15015E-03  1584   0.593E-02    0.288E-02
RMM:   3    -0.116018936038E+04    0.71879E-05   -0.61237E-05  1004   0.117E-02
   5 F= -.11672906E+04 E0= -.11672906E+04  d E =-.450914E-03  mag=     0.0000
