       N       E                     dE             d eps       ncg     rms          rms(c)
DAV:   1     0.470397634494E+04    0.47040E+04   -0.17736E+05  1908   0.917E+02
DAV:   2    -0.110245567108E+03   -0.48142E+04   -0.43948E+04  2520   0.206E+02
DAV:   3    -0.119413463552E+04   -0.10839E+04   -0.10787E+04  2052   0.107E+02
DAV:   4    -0.123797669131E+04   -0.43842E+02   -0.43615E+02  2052   0.285E+01
DAV:   5    -0.123908492549E+04   -0.11082E+01   -0.11045E+01  2268   0.420E+00    0.680E+01
RMM:   6    -0.121979734615E+04    0.19288E+02   -0.24867E+01  1587   0.483E+00    0.530E+01
RMM:   7    -0.120483394662E+04    0.14963E+02   -0.96471E+00  1584   0.356E+00    0.408E+01
RMM:   8    -0.118310469778E+04    0.21729E+02   -0.20651E+01  1584   0.521E+00    0.289E+01
RMM:   9    -0.116985040005E+04    0.13254E+02   -0.23830E+01  1584   0.557E+00    0.195E+01
RMM:  10    -0.116990621842E+04   -0.55818E-01   -0.17479E+01  1584   0.478E+00    0.942E+00
RMM:  11    -0.116994695930E+04   -0.40741E-01   -0.73073E-01  1629   0.112E+00    0.679E+00
RMM:  12    -0.116961330659E+04    0.33365E+00   -0.28981E-01  1584   0.601E-01    0.396E+00
RMM:  13    -0.116935094893E+04    0.26236E+00   -0.75957E-01  1584   0.981E-01    0.156E+00
RMM:  14    -0.116933907983E+04    0.11869E-01   -0.10189E-01  1593   0.355E-01    0.568E-01
RMM:  15    -0.116933846692E+04    0.61291E-03   -0.57165E-03  1612   0.988E-02    0.403E-01
RMM:  16    -0.116933861680E+04   -0.14987E-03   -0.72871E-03  1584   0.965E-02    0.230E-01
RMM:  17    -0.116933811928E+04    0.49752E-03   -0.10653E-03  1536   0.409E-02    0.151E-01
RMM:  18    -0.116933822020E+04   -0.10092E-03   -0.10091E-03  1316   0.351E-02    0.553E-02
RMM:  19    -0.116933819152E+04    0.28687E-04   -0.12185E-04  1049   0.127E-02
   1 F= -.11764859E+04 E0= -.11764859E+04  d E =-.117649E+04  mag=     1.0010
       N       E                     dE             d eps       ncg     rms          rms(c)
DAV:   1    -0.116923386296E+04    0.10436E+00   -0.15475E+01  1656   0.542E+00    0.292E+00
RMM:   2    -0.116931992872E+04   -0.86066E-01   -0.99778E-01  1593   0.928E-01    0.280E+00
RMM:   3    -0.116930231778E+04    0.17611E-01   -0.28228E-02  1738   0.149E-01    0.257E+00
RMM:   4    -0.116929572220E+04    0.65956E-02   -0.41751E-02  1585   0.190E-01    0.643E-01
RMM:   5    -0.116929852846E+04   -0.28063E-02   -0.23228E-03  1304   0.435E-02    0.357E-01
RMM:   6    -0.116929963105E+04   -0.11026E-02   -0.55183E-04  1208   0.252E-02    0.137E-01
RMM:   7    -0.116929960324E+04    0.27807E-04   -0.44513E-04  1269   0.232E-02
   2 F= -.11764508E+04 E0= -.11764507E+04  d E =0.351372E-01  mag=     0.9988
       N       E                     dE             d eps       ncg     rms          rms(c)
DAV:   1    -0.116931722989E+04   -0.17599E-01   -0.70743E+00  1656   0.374E+00    0.181E+00
RMM:   2    -0.116935718220E+04   -0.39952E-01   -0.46959E-01  1597   0.624E-01    0.200E+00
RMM:   3    -0.116934827120E+04    0.89110E-02   -0.12535E-02  1484   0.984E-02    0.206E+00
RMM:   4    -0.116934632861E+04    0.19426E-02   -0.68441E-03  1566   0.812E-02    0.106E+00
RMM:   5    -0.116934481621E+04    0.15124E-02   -0.46736E-03  1525   0.637E-02    0.364E-01
RMM:   6    -0.116934564495E+04   -0.82874E-03   -0.37334E-04  1117   0.205E-02    0.222E-01
RMM:   7    -0.116934586439E+04   -0.21944E-03   -0.34422E-04  1163   0.201E-02    0.137E-01
RMM:   8    -0.116934585441E+04    0.99831E-05   -0.72730E-05  1011   0.107E-02
   3 F= -.11764947E+04 E0= -.11764947E+04  d E =-.879487E-02  mag=     0.9994
       N       E                     dE             d eps       ncg     rms          rms(c)
DAV:   1    -0.116934623782E+04   -0.37343E-03   -0.71820E-01  1728   0.138E+00    0.280E-01
RMM:   2    -0.116934959667E+04   -0.33588E-02   -0.38824E-02  1589   0.223E-01    0.229E-01
RMM:   3    -0.116934836164E+04    0.12350E-02   -0.12344E-03  1350   0.428E-02    0.192E-01
RMM:   4    -0.116934785958E+04    0.50207E-03   -0.20938E-03  1584   0.508E-02    0.610E-02
RMM:   5    -0.116934790178E+04   -0.42201E-04   -0.95157E-05  1043   0.134E-02
   4 F= -.11764971E+04 E0= -.11764970E+04  d E =-.237464E-02  mag=     0.9993
       N       E                     dE             d eps       ncg     rms          rms(c)
DAV:   1    -0.116934793539E+04   -0.75816E-04   -0.67498E-05  1260   0.151E-02    0.292E-02
RMM:   2    -0.116934793459E+04    0.80343E-06   -0.19265E-05   936   0.676E-03
   5 F= -.11764971E+04 E0= -.11764971E+04  d E =-.240819E-02  mag=     0.9993
       N       E                     dE             d eps       ncg     rms          rms(c)
DAV:   1    -0.116934555508E+04    0.23803E-02   -0.63073E-01  1800   0.141E+00    0.212E-01
RMM:   2    -0.116934896732E+04   -0.34122E-02   -0.37682E-02  1590   0.226E-01    0.173E-01
RMM:   3    -0.116934797165E+04    0.99567E-03   -0.12471E-03  1361   0.433E-02    0.149E-01
RMM:   4    -0.116934766011E+04    0.31154E-03   -0.14321E-03  1571   0.428E-02    0.623E-02
RMM:   5    -0.116934766585E+04   -0.57345E-05   -0.87849E-05  1030   0.128E-02
   6 F= -.11764970E+04 E0= -.11764970E+04  d E =0.940770E-04  mag=     0.9993
       N       E                     dE             d eps       ncg     rms          rms(c)
DAV:   1    -0.116934811464E+04   -0.45453E-03   -0.17098E-01  1800   0.736E-01    0.102E-01
RMM:   2    -0.116934900452E+04   -0.88988E-03   -0.10098E-02  1591   0.117E-01    0.809E-02
RMM:   3    -0.116934871109E+04    0.29342E-03   -0.31782E-04  1079   0.226E-02    0.675E-02
RMM:   4    -0.116934859478E+04    0.11632E-03   -0.49656E-04  1388   0.253E-02    0.274E-02
RMM:   5    -0.116934860033E+04   -0.55540E-05   -0.32611E-05   972   0.865E-03
   7 F= -.11764979E+04 E0= -.11764978E+04  d E =-.748754E-03  mag=     0.9993
