       N       E                     dE             d eps       ncg     rms          rms(c)
DAV:   1     0.481375463062E+04    0.48138E+04   -0.17524E+05  1856   0.938E+02
DAV:   2    -0.448211904793E+02   -0.48586E+04   -0.44192E+04  2432   0.213E+02
DAV:   3    -0.118208064770E+04   -0.11373E+04   -0.11322E+04  2016   0.112E+02
DAV:   4    -0.122899389794E+04   -0.46913E+02   -0.46650E+02  1984   0.301E+01
DAV:   5    -0.123016564875E+04   -0.11718E+01   -0.11691E+01  2304   0.436E+00    0.647E+01
RMM:   6    -0.121093917567E+04    0.19226E+02   -0.13838E+01  1635   0.481E+00    0.573E+01
RMM:   7    -0.119924781635E+04    0.11691E+02   -0.98769E+00  1587   0.385E+00    0.499E+01
RMM:   8    -0.116746783654E+04    0.31780E+02   -0.52612E+01  1774   0.908E+00    0.362E+01
RMM:   9    -0.116617304610E+04    0.12948E+01   -0.46179E+00  1660   0.372E+00    0.304E+01
RMM:  10    -0.116383799816E+04    0.23350E+01   -0.34358E+00  1555   0.255E+00    0.246E+01
RMM:  11    -0.116172407128E+04    0.21139E+01   -0.10562E+01  1666   0.423E+00    0.123E+01
RMM:  12    -0.116250188696E+04   -0.77782E+00   -0.45423E+00  1545   0.294E+00    0.836E+00
RMM:  13    -0.116236836675E+04    0.13352E+00   -0.47484E-01  1640   0.114E+00    0.725E+00
RMM:  14    -0.116217792925E+04    0.19044E+00   -0.61735E-01  1573   0.106E+00    0.270E+00
RMM:  15    -0.116217668712E+04    0.12421E-02   -0.20841E-01  1561   0.600E-01    0.221E+00
RMM:  16    -0.116216230432E+04    0.14383E-01   -0.44166E-02  1550   0.333E-01    0.117E+00
RMM:  17    -0.116216527036E+04   -0.29660E-02   -0.31544E-02  1571   0.242E-01    0.836E-01
RMM:  18    -0.116216613569E+04   -0.86533E-03   -0.11981E-02  1615   0.170E-01    0.552E-01
RMM:  19    -0.116216663779E+04   -0.50211E-03   -0.26379E-03  1713   0.682E-02    0.447E-01
RMM:  20    -0.116216638927E+04    0.24853E-03   -0.54624E-04  1763   0.320E-02    0.322E-01
RMM:  21    -0.116216648364E+04   -0.94375E-04   -0.65858E-04  1672   0.331E-02    0.256E-01
RMM:  22    -0.116216652680E+04   -0.43158E-04   -0.62226E-04  1699   0.283E-02    0.893E-02
RMM:  23    -0.116216661552E+04   -0.88723E-04   -0.23327E-04  1706   0.195E-02    0.765E-02
RMM:  24    -0.116216665480E+04   -0.39282E-04   -0.67172E-05  1729   0.114E-02    0.623E-02
RMM:  25    -0.116216667356E+04   -0.18752E-04   -0.56846E-05  1674   0.941E-03    0.383E-02
RMM:  26    -0.116216668587E+04   -0.12312E-04   -0.93573E-06  1480   0.456E-03    0.389E-02
RMM:  27    -0.116216669811E+04   -0.12242E-04   -0.14739E-05  1511   0.460E-03    0.220E-02
RMM:  28    -0.116216672110E+04   -0.22986E-04   -0.17369E-05  1545   0.462E-03    0.195E-02
RMM:  29    -0.116216674313E+04   -0.22039E-04   -0.15158E-05  1438   0.443E-03    0.185E-02
RMM:  30    -0.116216676912E+04   -0.25981E-04   -0.69211E-05  1774   0.888E-03    0.200E-02
RMM:  31    -0.116216680633E+04   -0.37213E-04   -0.69942E-05  1751   0.828E-03    0.195E-02
RMM:  32    -0.116216682979E+04   -0.23464E-04   -0.12813E-04  1896   0.112E-02    0.149E-02
RMM:  33    -0.116216686584E+04   -0.36049E-04   -0.10077E-04  1850   0.952E-03    0.122E-02
RMM:  34    -0.116216691587E+04   -0.50028E-04   -0.18805E-05  1377   0.475E-03    0.102E-02
RMM:  35    -0.116216693783E+04   -0.21955E-04   -0.43931E-06  1186   0.268E-03    0.737E-03
RMM:  36    -0.116216694590E+04   -0.80699E-05   -0.26151E-06  1078   0.171E-03    0.699E-03
RMM:  37    -0.116216694819E+04   -0.22991E-05   -0.61541E-07  1011   0.115E-03    0.691E-03
RMM:  38    -0.116216695275E+04   -0.45551E-05   -0.13807E-06   999   0.113E-03    0.734E-03
RMM:  39    -0.116216695185E+04    0.89724E-06   -0.97994E-06  1159   0.278E-03
   1 F= -.11621670E+04 E0= -.11621670E+04  d E =-.116217E+04  mag=     3.0004
       N       E                     dE             d eps       ncg     rms          rms(c)
DAV:   1    -0.116176110800E+04    0.40584E+00   -0.46071E+01  1728   0.131E+01    0.204E+00
RMM:   2    -0.116192046304E+04   -0.15936E+00   -0.17288E+00  1811   0.218E+00    0.184E+00
RMM:   3    -0.116195618846E+04   -0.35725E-01   -0.43818E-01  2013   0.908E-01    0.154E+00
RMM:   4    -0.116194720698E+04    0.89815E-02   -0.56329E-02  1952   0.344E-01    0.123E+00
RMM:   5    -0.116193050563E+04    0.16701E-01   -0.57563E-02  1590   0.313E-01    0.591E-01
RMM:   6    -0.116193043493E+04    0.70696E-04   -0.17707E-02  1625   0.188E-01    0.332E-01
RMM:   7    -0.116193076913E+04   -0.33419E-03   -0.43909E-03  1911   0.964E-02    0.217E-01
RMM:   8    -0.116193030136E+04    0.46776E-03   -0.19720E-03  1606   0.593E-02    0.117E-01
RMM:   9    -0.116193030017E+04    0.11928E-05   -0.14883E-03  1582   0.487E-02    0.761E-02
RMM:  10    -0.116193026106E+04    0.39106E-04   -0.20220E-04  1607   0.221E-02    0.449E-02
RMM:  11    -0.116193026068E+04    0.38038E-06   -0.10506E-04  1677   0.139E-02    0.241E-02
RMM:  12    -0.116193026540E+04   -0.47175E-05   -0.32241E-05  1876   0.729E-03    0.203E-02
RMM:  13    -0.116193027295E+04   -0.75516E-05   -0.13666E-05  1625   0.482E-03    0.152E-02
RMM:  14    -0.116193028042E+04   -0.74661E-05   -0.82864E-06  1497   0.384E-03    0.134E-02
RMM:  15    -0.116193028853E+04   -0.81077E-05   -0.39837E-06  1198   0.251E-03    0.126E-02
RMM:  16    -0.116193030154E+04   -0.13010E-04   -0.73045E-06  1243   0.314E-03    0.119E-02
RMM:  17    -0.116193031431E+04   -0.12777E-04   -0.93428E-06  1274   0.332E-03    0.115E-02
RMM:  18    -0.116193032746E+04   -0.13145E-04   -0.25512E-05  1736   0.537E-03    0.110E-02
RMM:  19    -0.116193034025E+04   -0.12796E-04   -0.40901E-05  1564   0.638E-03    0.977E-03
RMM:  20    -0.116193035625E+04   -0.15993E-04   -0.56837E-05  1847   0.742E-03    0.844E-03
RMM:  21    -0.116193037878E+04   -0.22529E-04   -0.34641E-05  1495   0.538E-03    0.728E-03
RMM:  22    -0.116193040814E+04   -0.29367E-04   -0.63763E-06  1162   0.304E-03    0.610E-03
RMM:  23    -0.116193041674E+04   -0.85926E-05   -0.18687E-06  1073   0.165E-03    0.562E-03
RMM:  24    -0.116193041908E+04   -0.23443E-05   -0.31331E-06  1084   0.164E-03    0.558E-03
RMM:  25    -0.116193042420E+04   -0.51195E-05   -0.91249E-07   984   0.114E-03    0.545E-03
RMM:  26    -0.116193042549E+04   -0.12909E-05   -0.58608E-07   925   0.833E-04    0.540E-03
RMM:  27    -0.116193042057E+04    0.49177E-05   -0.10062E-05  1140   0.279E-03    0.572E-03
RMM:  28    -0.116193037961E+04    0.40967E-04   -0.49996E-05  1333   0.707E-03    0.623E-03
RMM:  29    -0.116193036944E+04    0.10164E-04   -0.30657E-05  1231   0.372E-03    0.606E-03
RMM:  30    -0.116193037160E+04   -0.21574E-05   -0.15024E-05  1139   0.284E-03    0.577E-03
RMM:  31    -0.116193031260E+04    0.59003E-04   -0.17641E-04  1573   0.123E-02    0.889E-03
RMM:  32    -0.116193014637E+04    0.16622E-03   -0.43255E-04  1827   0.199E-02    0.110E-02
RMM:  33    -0.116193021617E+04   -0.69793E-04   -0.15171E-04  1483   0.853E-03    0.838E-03
RMM:  34    -0.116193023361E+04   -0.17439E-04   -0.87631E-05  1420   0.653E-03    0.757E-03
RMM:  35    -0.116193029767E+04   -0.64061E-04   -0.14359E-05  1198   0.448E-03    0.576E-03
RMM:  36    -0.116193024648E+04    0.51186E-04   -0.15905E-04  1553   0.117E-02    0.852E-03
RMM:  37    -0.116193033059E+04   -0.84112E-04   -0.22631E-05  1215   0.471E-03    0.607E-03
RMM:  38    -0.116192997756E+04    0.35303E-03   -0.72101E-04  1863   0.212E-02    0.160E-02
RMM:  39    -0.116193031443E+04   -0.33687E-03   -0.16129E-04  1507   0.105E-02    0.982E-03
RMM:  40    -0.116193040690E+04   -0.92464E-04   -0.60655E-05  1431   0.985E-03    0.559E-03
RMM:  41    -0.116193037262E+04    0.34272E-04   -0.38663E-05  1244   0.450E-03    0.570E-03
RMM:  42    -0.116193031174E+04    0.60879E-04   -0.78744E-05  1395   0.642E-03    0.663E-03
RMM:  43    -0.116193038428E+04   -0.72537E-04   -0.85639E-06  1151   0.427E-03    0.494E-03
RMM:  44    -0.116193036437E+04    0.19909E-04   -0.69869E-05  1369   0.796E-03    0.680E-03
RMM:  45    -0.116193041549E+04   -0.51118E-04   -0.67820E-06  1104   0.401E-03    0.460E-03
RMM:  46    -0.116193040955E+04    0.59435E-05   -0.72487E-07   899   0.125E-03    0.447E-03
RMM:  47    -0.116193039816E+04    0.11391E-04   -0.34139E-06  1031   0.170E-03    0.448E-03
RMM:  48    -0.116193036068E+04    0.37477E-04   -0.11553E-04  1462   0.963E-03    0.756E-03
RMM:  49    -0.116193042497E+04   -0.64287E-04   -0.17021E-05  1184   0.423E-03    0.546E-03
RMM:  50    -0.116193043286E+04   -0.78935E-05   -0.15998E-05  1141   0.285E-03    0.568E-03
RMM:  51    -0.116193044897E+04   -0.16111E-04   -0.61745E-06  1073   0.212E-03    0.544E-03
RMM:  52    -0.116193046052E+04   -0.11552E-04   -0.14678E-06   954   0.138E-03    0.525E-03
RMM:  53    -0.116193046304E+04   -0.25178E-05   -0.28904E-07   876   0.975E-04    0.521E-03
RMM:  54    -0.116193045338E+04    0.96630E-05   -0.17321E-06   950   0.152E-03    0.527E-03
RMM:  55    -0.116193045763E+04   -0.42545E-05   -0.69976E-06  1041   0.271E-03    0.566E-03
RMM:  56    -0.116193046573E+04   -0.81037E-05   -0.73545E-07   861   0.137E-03    0.547E-03
RMM:  57    -0.116193046754E+04   -0.18052E-05   -0.30644E-07   678   0.571E-04    0.554E-03
RMM:  58    -0.116193046915E+04   -0.16055E-05   -0.50013E-07   767   0.621E-04    0.559E-03
RMM:  59    -0.116193046951E+04   -0.36556E-06   -0.11643E-07   635   0.499E-04
   2 F= -.11619305E+04 E0= -.11619305E+04  d E =0.236482E+00  mag=     3.0000
       N       E                     dE             d eps       ncg     rms          rms(c)
DAV:   1    -0.116213161746E+04   -0.20115E+00   -0.23084E+01  1696   0.926E+00    0.152E+00
RMM:   2    -0.116221271146E+04   -0.81094E-01   -0.88604E-01  1828   0.155E+00    0.134E+00
RMM:   3    -0.116222783782E+04   -0.15126E-01   -0.19625E-01  1969   0.633E-01    0.107E+00
RMM:   4    -0.116222453505E+04    0.33028E-02   -0.29841E-02  2010   0.245E-01    0.894E-01
RMM:   5    -0.116221601605E+04    0.85190E-02   -0.24170E-02  1579   0.204E-01    0.444E-01
RMM:   6    -0.116221571795E+04    0.29810E-03   -0.11542E-02  1562   0.144E-01    0.262E-01
RMM:   7    -0.116221562668E+04    0.91272E-04   -0.17831E-03  1973   0.633E-02    0.181E-01
RMM:   8    -0.116221554766E+04    0.79017E-04   -0.11527E-03  1645   0.435E-02    0.911E-02
RMM:   9    -0.116221551126E+04    0.36403E-04   -0.47408E-04  1758   0.296E-02    0.622E-02
RMM:  10    -0.116221549016E+04    0.21098E-04   -0.17237E-04  1705   0.179E-02    0.363E-02
RMM:  11    -0.116221549989E+04   -0.97275E-05   -0.45279E-05  1831   0.919E-03    0.242E-02
RMM:  12    -0.116221550376E+04   -0.38740E-05   -0.22720E-05  1657   0.607E-03    0.168E-02
RMM:  13    -0.116221550966E+04   -0.58963E-05   -0.10501E-05  1575   0.421E-03    0.124E-02
RMM:  14    -0.116221551351E+04   -0.38535E-05   -0.41537E-06  1221   0.254E-03    0.115E-02
RMM:  15    -0.116221552302E+04   -0.95123E-05   -0.64002E-06  1289   0.302E-03    0.105E-02
RMM:  16    -0.116221552629E+04   -0.32697E-05   -0.15145E-06  1069   0.156E-03    0.102E-02
RMM:  17    -0.116221553345E+04   -0.71601E-05   -0.15796E-05  1421   0.407E-03    0.102E-02
RMM:  18    -0.116221555046E+04   -0.17011E-04   -0.36449E-06  1103   0.208E-03    0.982E-03
RMM:  19    -0.116221555390E+04   -0.34405E-05   -0.14215E-05  1353   0.356E-03    0.930E-03
RMM:  20    -0.116221553985E+04    0.14051E-04   -0.95311E-05  1603   0.858E-03    0.999E-03
RMM:  21    -0.116221559438E+04   -0.54526E-04   -0.22093E-05  1331   0.429E-03    0.871E-03
RMM:  22    -0.116221561298E+04   -0.18602E-04   -0.14223E-05  1284   0.316E-03    0.816E-03
RMM:  23    -0.116221561973E+04   -0.67478E-05   -0.24238E-05  1351   0.388E-03    0.809E-03
RMM:  24    -0.116221562861E+04   -0.88800E-05   -0.11900E-05  1212   0.458E-03    0.775E-03
RMM:  25    -0.116221563316E+04   -0.45551E-05   -0.66576E-07   966   0.117E-03    0.772E-03
RMM:  26    -0.116221564084E+04   -0.76784E-05   -0.10870E-06  1018   0.131E-03    0.775E-03
RMM:  27    -0.116221564279E+04   -0.19440E-05   -0.73381E-06  1121   0.233E-03    0.817E-03
RMM:  28    -0.116221564780E+04   -0.50139E-05   -0.83774E-06  1138   0.214E-03    0.855E-03
RMM:  29    -0.116221566256E+04   -0.14765E-04   -0.16352E-06   986   0.149E-03    0.845E-03
RMM:  30    -0.116221565579E+04    0.67770E-05   -0.19399E-05  1273   0.398E-03    0.826E-03
RMM:  31    -0.116221555564E+04    0.10015E-03   -0.25460E-04  1644   0.127E-02    0.126E-02
RMM:  32    -0.116221571789E+04   -0.16225E-03   -0.23988E-05  1267   0.633E-03    0.906E-03
RMM:  33    -0.116221567789E+04    0.40000E-04   -0.14275E-04  1532   0.927E-03    0.121E-02
RMM:  34    -0.116221558686E+04    0.91023E-04   -0.35824E-04  1678   0.135E-02    0.163E-02
RMM:  35    -0.116221584264E+04   -0.25578E-03   -0.26350E-05  1304   0.783E-03    0.111E-02
RMM:  36    -0.116221584282E+04   -0.17716E-06   -0.53359E-05  1427   0.580E-03    0.116E-02
RMM:  37    -0.116221588458E+04   -0.41757E-04   -0.76666E-06  1169   0.349E-03    0.963E-03
RMM:  38    -0.116221589539E+04   -0.10816E-04   -0.19265E-06  1073   0.197E-03    0.900E-03
RMM:  39    -0.116221589176E+04    0.36352E-05   -0.25374E-05  1252   0.432E-03    0.101E-02
RMM:  40    -0.116221590373E+04   -0.11975E-04   -0.44633E-05  1308   0.485E-03    0.110E-02
RMM:  41    -0.116221593350E+04   -0.29767E-04   -0.15332E-05  1179   0.311E-03    0.106E-02
RMM:  42    -0.116221595242E+04   -0.18924E-04   -0.24777E-06  1056   0.268E-03    0.996E-03
RMM:  43    -0.116221590881E+04    0.43608E-04   -0.26094E-05  1245   0.473E-03    0.960E-03
RMM:  44    -0.116221590247E+04    0.63425E-05   -0.12114E-05  1089   0.243E-03    0.952E-03
RMM:  45    -0.116221579478E+04    0.10770E-03   -0.10524E-04  1443   0.817E-03    0.100E-02
RMM:  46    -0.116221576994E+04    0.24839E-04   -0.78418E-05  1381   0.591E-03    0.956E-03
RMM:  47    -0.116221576068E+04    0.92530E-05   -0.51333E-05  1356   0.497E-03    0.904E-03
RMM:  48    -0.116221581916E+04   -0.58473E-04   -0.61407E-05  1436   0.883E-03    0.970E-03
RMM:  49    -0.116221584490E+04   -0.25742E-04   -0.65462E-06  1052   0.251E-03    0.907E-03
RMM:  50    -0.116221582869E+04    0.16208E-04   -0.10802E-05  1127   0.362E-03    0.860E-03
RMM:  51    -0.116221582192E+04    0.67715E-05   -0.48253E-06   940   0.150E-03    0.854E-03
RMM:  52    -0.116221570617E+04    0.11574E-03   -0.11143E-04  1440   0.871E-03    0.950E-03
RMM:  53    -0.116221578156E+04   -0.75385E-04   -0.94869E-06  1165   0.460E-03    0.831E-03
RMM:  54    -0.116221578133E+04    0.22956E-06   -0.16114E-06   969   0.122E-03
   3 F= -.11622158E+04 E0= -.11622158E+04  d E =-.488295E-01  mag=     3.0000
       N       E                     dE             d eps       ncg     rms          rms(c)
DAV:   1    -0.116218237373E+04    0.33408E-01   -0.76866E+00  1760   0.611E+00    0.981E-01
RMM:   2    -0.116222007285E+04   -0.37699E-01   -0.40521E-01  1839   0.939E-01    0.830E-01
RMM:   3    -0.116222471771E+04   -0.46449E-02   -0.55795E-02  1887   0.360E-01    0.666E-01
RMM:   4    -0.116222417704E+04    0.54067E-03   -0.14497E-02  1817   0.167E-01    0.453E-01
RMM:   5    -0.116222358206E+04    0.59498E-03   -0.59073E-03  1708   0.106E-01    0.272E-01
RMM:   6    -0.116222383852E+04   -0.25646E-03   -0.35109E-03  1612   0.834E-02    0.103E-01
RMM:   7    -0.116222393199E+04   -0.93471E-04   -0.69400E-04  2041   0.379E-02    0.767E-02
RMM:   8    -0.116222383600E+04    0.95985E-04   -0.44206E-04  1605   0.259E-02    0.385E-02
RMM:   9    -0.116222386244E+04   -0.26435E-04   -0.11734E-04  1995   0.143E-02    0.244E-02
RMM:  10    -0.116222385594E+04    0.64967E-05   -0.15015E-05  1596   0.590E-03    0.187E-02
RMM:  11    -0.116222386154E+04   -0.55999E-05   -0.23064E-05  1574   0.653E-03    0.107E-02
RMM:  12    -0.116222386210E+04   -0.56026E-06   -0.69980E-06  1480   0.358E-03
   4 F= -.11622239E+04 E0= -.11622239E+04  d E =-.808077E-02  mag=     3.0000
       N       E                     dE             d eps       ncg     rms          rms(c)
DAV:   1    -0.116222502517E+04   -0.11636E-02   -0.13339E+00  1696   0.254E+00    0.411E-01
RMM:   2    -0.116223142209E+04   -0.63969E-02   -0.70043E-02  1832   0.391E-01    0.348E-01
RMM:   3    -0.116223224342E+04   -0.82132E-03   -0.95970E-03  1883   0.151E-01    0.274E-01
RMM:   4    -0.116223224434E+04   -0.92058E-06   -0.25206E-03  1821   0.705E-02    0.187E-01
RMM:   5    -0.116223215448E+04    0.89855E-04   -0.10297E-03  1728   0.439E-02    0.114E-01
RMM:   6    -0.116223222063E+04   -0.66148E-04   -0.58369E-04  1613   0.341E-02    0.456E-02
RMM:   7    -0.116223224933E+04   -0.28695E-04   -0.11837E-04  1959   0.160E-02    0.333E-02
RMM:   8    -0.116223224021E+04    0.91147E-05   -0.74677E-05  1598   0.107E-02    0.178E-02
RMM:   9    -0.116223224729E+04   -0.70746E-05   -0.22152E-05  1877   0.625E-03    0.122E-02
RMM:  10    -0.116223224751E+04   -0.22710E-06   -0.36697E-06  1242   0.271E-03
   5 F= -.11622322E+04 E0= -.11622322E+04  d E =-.164662E-01  mag=     3.0000
       N       E                     dE             d eps       ncg     rms          rms(c)
DAV:   1    -0.116219487401E+04    0.37373E-01   -0.48578E+00  1920   0.562E+00    0.894E-01
RMM:   2    -0.116223340182E+04   -0.38528E-01   -0.40351E-01  1846   0.827E-01    0.653E-01
RMM:   3    -0.116223820518E+04   -0.48034E-02   -0.46532E-02  1876   0.310E-01    0.469E-01
RMM:   4    -0.116223900450E+04   -0.79932E-03   -0.11138E-02  1873   0.139E-01    0.314E-01
RMM:   5    -0.116223913301E+04   -0.12851E-03   -0.28140E-03  1783   0.725E-02    0.210E-01
RMM:   6    -0.116223952630E+04   -0.39329E-03   -0.20269E-03  1569   0.629E-02    0.676E-02
RMM:   7    -0.116223962640E+04   -0.10010E-03   -0.38695E-04  1946   0.296E-02    0.450E-02
RMM:   8    -0.116223960183E+04    0.24573E-04   -0.65446E-05  1707   0.121E-02    0.345E-02
RMM:   9    -0.116223958691E+04    0.14913E-04   -0.99611E-05  1591   0.126E-02    0.153E-02
RMM:  10    -0.116223959493E+04   -0.80198E-05   -0.27674E-05  1656   0.732E-03    0.100E-02
RMM:  11    -0.116223959436E+04    0.57128E-06   -0.42547E-06  1277   0.307E-03
   6 F= -.11622396E+04 E0= -.11622396E+04  d E =-.734685E-02  mag=     3.0000
       N       E                     dE             d eps       ncg     rms          rms(c)
DAV:   1    -0.116223704048E+04    0.25545E-02   -0.52895E-01  1888   0.185E+00    0.295E-01
RMM:   2    -0.116224112311E+04   -0.40826E-02   -0.43814E-02  1842   0.274E-01    0.217E-01
RMM:   3    -0.116224166858E+04   -0.54547E-03   -0.50311E-03  1886   0.103E-01    0.155E-01
RMM:   4    -0.116224180541E+04   -0.13684E-03   -0.12140E-03  1852   0.467E-02    0.102E-01
RMM:   5    -0.116224182811E+04   -0.22696E-04   -0.31528E-04  1801   0.239E-02    0.697E-02
RMM:   6    -0.116224189859E+04   -0.70480E-04   -0.22320E-04  1570   0.212E-02    0.226E-02
RMM:   7    -0.116224191848E+04   -0.19887E-04   -0.43176E-05  1857   0.995E-03    0.152E-02
RMM:   8    -0.116224191711E+04    0.13644E-05   -0.78475E-06  1564   0.407E-03    0.126E-02
RMM:   9    -0.116224191817E+04   -0.10617E-05   -0.98147E-06  1570   0.399E-03    0.763E-03
RMM:  10    -0.116224192092E+04   -0.27418E-05   -0.43576E-06  1266   0.266E-03    0.607E-03
RMM:  11    -0.116224192205E+04   -0.11334E-05   -0.95729E-07  1035   0.128E-03    0.567E-03
RMM:  12    -0.116224192450E+04   -0.24526E-05   -0.11033E-06  1044   0.115E-03    0.538E-03
RMM:  13    -0.116224192586E+04   -0.13615E-05   -0.54594E-07  1011   0.802E-04    0.528E-03
RMM:  14    -0.116224192811E+04   -0.22447E-05   -0.32662E-06  1075   0.166E-03    0.540E-03
RMM:  15    -0.116224192583E+04    0.22782E-05   -0.87119E-07  1004   0.151E-03    0.532E-03
RMM:  16    -0.116224191838E+04    0.74468E-05   -0.15229E-06   940   0.119E-03    0.529E-03
RMM:  17    -0.116224189764E+04    0.20742E-04   -0.13893E-05  1166   0.311E-03    0.546E-03
RMM:  18    -0.116224182913E+04    0.68510E-04   -0.79620E-05  1371   0.688E-03    0.690E-03
RMM:  19    -0.116224174020E+04    0.88927E-04   -0.14773E-04  1476   0.846E-03    0.841E-03
RMM:  20    -0.116224179828E+04   -0.58078E-04   -0.43457E-05  1316   0.529E-03    0.625E-03
RMM:  21    -0.116224183615E+04   -0.37866E-04   -0.48687E-05  1362   0.788E-03    0.604E-03
RMM:  22    -0.116224172146E+04    0.11469E-03   -0.17640E-04  1608   0.123E-02    0.804E-03
RMM:  23    -0.116224180032E+04   -0.78863E-04   -0.11059E-04  1558   0.118E-02    0.674E-03
RMM:  24    -0.116224185553E+04   -0.55211E-04   -0.60996E-06  1066   0.357E-03    0.504E-03
RMM:  25    -0.116224185961E+04   -0.40797E-05   -0.17936E-06   911   0.104E-03    0.506E-03
RMM:  26    -0.116224158160E+04    0.27801E-03   -0.38557E-04  1736   0.166E-02    0.110E-02
RMM:  27    -0.116224173450E+04   -0.15290E-03   -0.65313E-05  1382   0.711E-03    0.633E-03
RMM:  28    -0.116224178664E+04   -0.52140E-04   -0.51733E-06  1135   0.390E-03    0.473E-03
RMM:  29    -0.116224145665E+04    0.32999E-03   -0.73028E-04  1874   0.222E-02    0.152E-02
RMM:  30    -0.116224165294E+04   -0.19629E-03   -0.31525E-04  1631   0.118E-02    0.122E-02
RMM:  31    -0.116224174887E+04   -0.95935E-04   -0.22379E-04  1611   0.100E-02    0.110E-02
RMM:  32    -0.116224184556E+04   -0.96689E-04   -0.15045E-04  1521   0.829E-03    0.960E-03
RMM:  33    -0.116224194854E+04   -0.10298E-03   -0.34205E-05  1303   0.537E-03    0.677E-03
RMM:  34    -0.116224198946E+04   -0.40911E-04   -0.38963E-06  1103   0.327E-03    0.530E-03
RMM:  35    -0.116224199070E+04   -0.12475E-05   -0.58063E-07   943   0.147E-03    0.517E-03
RMM:  36    -0.116224199433E+04   -0.36293E-05   -0.85918E-07   843   0.922E-04    0.527E-03
RMM:  37    -0.116224197847E+04    0.15862E-04   -0.36360E-06  1047   0.209E-03    0.525E-03
RMM:  38    -0.116224197354E+04    0.49292E-05   -0.27302E-06   872   0.117E-03    0.522E-03
RMM:  39    -0.116224187916E+04    0.94379E-04   -0.88600E-05  1402   0.785E-03    0.683E-03
RMM:  40    -0.116224189353E+04   -0.14372E-04   -0.37386E-05  1240   0.428E-03    0.596E-03
RMM:  41    -0.116224189809E+04   -0.45600E-05   -0.18616E-05  1173   0.319E-03    0.568E-03
RMM:  42    -0.116224189639E+04    0.17018E-05   -0.13288E-05  1130   0.261E-03    0.568E-03
RMM:  43    -0.116224192166E+04   -0.25268E-04   -0.19535E-06  1029   0.240E-03    0.541E-03
RMM:  44    -0.116224192291E+04   -0.12478E-05   -0.70952E-08   729   0.531E-04    0.542E-03
RMM:  45    -0.116224192690E+04   -0.39868E-05   -0.12691E-06   920   0.121E-03    0.542E-03
RMM:  46    -0.116224192919E+04   -0.22969E-05   -0.69505E-07   679   0.623E-04    0.538E-03
RMM:  47    -0.116224192631E+04    0.28815E-05   -0.99768E-06  1118   0.272E-03    0.564E-03
RMM:  48    -0.116224191733E+04    0.89838E-05   -0.44862E-05  1284   0.513E-03    0.664E-03
RMM:  49    -0.116224195502E+04   -0.37697E-04   -0.41717E-06  1075   0.321E-03    0.524E-03
RMM:  50    -0.116224195548E+04   -0.45685E-06   -0.29504E-07   839   0.778E-04
   7 F= -.11622420E+04 E0= -.11622420E+04  d E =-.970797E-02  mag=     3.0000
       N       E                     dE             d eps       ncg     rms          rms(c)
DAV:   1    -0.116221599669E+04    0.25958E-01   -0.27722E+00  1920   0.452E+00    0.719E-01
RMM:   2    -0.116224298291E+04   -0.26986E-01   -0.27864E-01  1857   0.641E-01    0.490E-01
RMM:   3    -0.116224673973E+04   -0.37568E-02   -0.30698E-02  1888   0.239E-01    0.332E-01
RMM:   4    -0.116224774103E+04   -0.10013E-02   -0.71738E-03  1895   0.106E-01    0.216E-01
RMM:   5    -0.116224799692E+04   -0.25590E-03   -0.14793E-03  1892   0.502E-02    0.142E-01
RMM:   6    -0.116224832107E+04   -0.32415E-03   -0.86187E-04  1588   0.418E-02    0.474E-02
RMM:   7    -0.116224835980E+04   -0.38732E-04   -0.13661E-04  1789   0.184E-02    0.283E-02
RMM:   8    -0.116224835335E+04    0.64564E-05   -0.34467E-05  1821   0.820E-03    0.248E-02
RMM:   9    -0.116224834649E+04    0.68600E-05   -0.14844E-05  1608   0.527E-03    0.164E-02
RMM:  10    -0.116224835195E+04   -0.54589E-05   -0.22129E-05  1591   0.612E-03    0.704E-03
RMM:  11    -0.116224835230E+04   -0.35470E-06   -0.31127E-06  1172   0.267E-03
   8 F= -.11622484E+04 E0= -.11622484E+04  d E =-.639682E-02  mag=     3.0000
       N       E                     dE             d eps       ncg     rms          rms(c)
DAV:   1    -0.116224783916E+04    0.51279E-03   -0.60280E-02  2048   0.665E-01    0.106E-01
RMM:   2    -0.116224839587E+04   -0.55671E-03   -0.60497E-03  1857   0.947E-02    0.724E-02
RMM:   3    -0.116224847911E+04   -0.83245E-04   -0.65362E-04  1883   0.351E-02    0.488E-02
RMM:   4    -0.116224850752E+04   -0.28412E-04   -0.15705E-04  1854   0.160E-02    0.320E-02
RMM:   5    -0.116224852308E+04   -0.15557E-04   -0.38298E-05  1802   0.786E-03    0.205E-02
RMM:   6    -0.116224854525E+04   -0.22168E-04   -0.20655E-05  1578   0.667E-03    0.787E-03
RMM:   7    -0.116224854849E+04   -0.32387E-05   -0.38192E-06  1215   0.291E-03    0.571E-03
RMM:   8    -0.116224854832E+04    0.16841E-06   -0.94910E-07  1041   0.139E-03
   9 F= -.11622485E+04 E0= -.11622485E+04  d E =-.659284E-02  mag=     3.0000
       N       E                     dE             d eps       ncg     rms          rms(c)
DAV:   1    -0.116223524571E+04    0.13303E-01   -0.20127E+00  1888   0.356E+00    0.543E-01
RMM:   2    -0.116224970486E+04   -0.14459E-01   -0.15375E-01  1833   0.477E-01    0.383E-01
RMM:   3    -0.116225166642E+04   -0.19616E-02   -0.16482E-02  1861   0.181E-01    0.269E-01
RMM:   4    -0.116225222619E+04   -0.55977E-03   -0.42392E-03  1830   0.843E-02    0.175E-01
RMM:   5    -0.116225239302E+04   -0.16683E-03   -0.11145E-03  1834   0.443E-02    0.103E-01
RMM:   6    -0.116225258598E+04   -0.19296E-03   -0.51920E-04  1603   0.325E-02    0.378E-02
RMM:   7    -0.116225260425E+04   -0.18268E-04   -0.87530E-05  1739   0.148E-02    0.213E-02
RMM:   8    -0.116225259983E+04    0.44179E-05   -0.29798E-05  1677   0.755E-03    0.173E-02
RMM:   9    -0.116225260019E+04   -0.35494E-06   -0.12640E-05  1602   0.492E-03    0.103E-02
RMM:  10    -0.116225260441E+04   -0.42270E-05   -0.93398E-06  1559   0.416E-03    0.587E-03
RMM:  11    -0.116225260460E+04   -0.18768E-06   -0.13596E-06  1039   0.182E-03
  10 F= -.11622526E+04 E0= -.11622526E+04  d E =-.405628E-02  mag=     3.0000
       N       E                     dE             d eps       ncg     rms          rms(c)
DAV:   1    -0.116225229154E+04    0.31287E-03   -0.56012E-02  1984   0.595E-01    0.907E-02
RMM:   2    -0.116225266572E+04   -0.37418E-03   -0.42763E-03  1825   0.797E-02    0.640E-02
RMM:   3    -0.116225272143E+04   -0.55705E-04   -0.44882E-04  1853   0.302E-02    0.448E-02
RMM:   4    -0.116225274163E+04   -0.20208E-04   -0.11727E-04  1791   0.144E-02    0.293E-02
RMM:   5    -0.116225275768E+04   -0.16051E-04   -0.37303E-05  1787   0.778E-03    0.177E-02
RMM:   6    -0.116225277535E+04   -0.17664E-04   -0.15760E-05  1577   0.586E-03    0.706E-03
RMM:   7    -0.116225277775E+04   -0.24007E-05   -0.32179E-06  1165   0.269E-03    0.488E-03
RMM:   8    -0.116225277775E+04   -0.58280E-08   -0.10312E-06  1036   0.145E-03
  11 F= -.11622528E+04 E0= -.11622528E+04  d E =-.422944E-02  mag=     3.0000
       N       E                     dE             d eps       ncg     rms          rms(c)
DAV:   1    -0.116224629249E+04    0.64853E-02   -0.16646E+00  1792   0.300E+00    0.425E-01
RMM:   2    -0.116225462396E+04   -0.83315E-02   -0.90248E-02  1796   0.391E-01    0.314E-01
RMM:   3    -0.116225576341E+04   -0.11395E-02   -0.10923E-02  1851   0.153E-01    0.235E-01
RMM:   4    -0.116225594280E+04   -0.17939E-03   -0.26581E-03  1821   0.702E-02    0.153E-01
RMM:   5    -0.116225596348E+04   -0.20679E-04   -0.76400E-04  1759   0.379E-02    0.896E-02
RMM:   6    -0.116225610141E+04   -0.13793E-03   -0.43489E-04  1581   0.296E-02    0.314E-02
RMM:   7    -0.116225610703E+04   -0.56244E-05   -0.64552E-05  1700   0.129E-02    0.191E-02
RMM:   8    -0.116225610371E+04    0.33258E-05   -0.26671E-05  1605   0.729E-03    0.137E-02
RMM:   9    -0.116225610684E+04   -0.31301E-05   -0.10438E-05  1620   0.458E-03    0.757E-03
RMM:  10    -0.116225610870E+04   -0.18560E-05   -0.45053E-06  1358   0.301E-03    0.481E-03
RMM:  11    -0.116225610895E+04   -0.25514E-06   -0.10492E-06  1032   0.149E-03
  12 F= -.11622561E+04 E0= -.11622561E+04  d E =-.333120E-02  mag=     3.0000
       N       E                     dE             d eps       ncg     rms          rms(c)
DAV:   1    -0.116225603280E+04    0.75895E-04   -0.23120E-02  1824   0.353E-01    0.503E-02
RMM:   2    -0.116225613217E+04   -0.99372E-04   -0.12508E-03  1789   0.463E-02    0.372E-02
RMM:   3    -0.116225614881E+04   -0.16640E-04   -0.14827E-04  1845   0.179E-02    0.278E-02
RMM:   4    -0.116225615585E+04   -0.70423E-05   -0.36582E-05  1761   0.849E-03    0.182E-02
RMM:   5    -0.116225616290E+04   -0.70424E-05   -0.12991E-05  1659   0.475E-03    0.111E-02
RMM:   6    -0.116225617023E+04   -0.73342E-05   -0.70899E-06  1502   0.383E-03    0.490E-03
RMM:   7    -0.116225617118E+04   -0.94815E-06   -0.12777E-06  1034   0.167E-03
  13 F= -.11622562E+04 E0= -.11622562E+04  d E =-.339342E-02  mag=     3.0000
       N       E                     dE             d eps       ncg     rms          rms(c)
DAV:   1    -0.116225493917E+04    0.12311E-02   -0.11206E+00  1696   0.214E+00    0.265E-01
RMM:   2    -0.116225787337E+04   -0.29342E-02   -0.33054E-02  1761   0.283E-01    0.216E-01
RMM:   3    -0.116225822289E+04   -0.34952E-03   -0.53730E-03  1828   0.115E-01    0.176E-01
RMM:   4    -0.116225809207E+04    0.13083E-03   -0.14643E-03  1762   0.565E-02    0.110E-01
RMM:   5    -0.116225809393E+04   -0.18596E-05   -0.53297E-04  1754   0.315E-02    0.641E-02
RMM:   6    -0.116225814550E+04   -0.51572E-04   -0.19850E-04  1650   0.202E-02    0.270E-02
RMM:   7    -0.116225814776E+04   -0.22562E-05   -0.38797E-05  1730   0.952E-03    0.162E-02
RMM:   8    -0.116225814364E+04    0.41115E-05   -0.35603E-05  1562   0.742E-03    0.956E-03
RMM:   9    -0.116225814483E+04   -0.11837E-05   -0.51135E-06  1602   0.365E-03    0.635E-03
RMM:  10    -0.116225814526E+04   -0.43156E-06   -0.27716E-06  1123   0.222E-03
  14 F= -.11622581E+04 E0= -.11622581E+04  d E =-.197408E-02  mag=     3.0000
       N       E                     dE             d eps       ncg     rms          rms(c)
DAV:   1    -0.116225815482E+04   -0.99874E-05   -0.45182E-02  1760   0.430E-01    0.536E-02
RMM:   2    -0.116225825730E+04   -0.10249E-03   -0.13085E-03  1761   0.563E-02    0.437E-02
RMM:   3    -0.116225827176E+04   -0.14457E-04   -0.21001E-04  1822   0.228E-02    0.357E-02
RMM:   4    -0.116225827188E+04   -0.11495E-06   -0.58688E-05  1748   0.114E-02    0.222E-02
RMM:   5    -0.116225827683E+04   -0.49543E-05   -0.21825E-05  1708   0.636E-03    0.132E-02
RMM:   6    -0.116225828216E+04   -0.53260E-05   -0.87364E-06  1510   0.421E-03    0.618E-03
RMM:   7    -0.116225828303E+04   -0.87579E-06   -0.20352E-06  1059   0.210E-03
  15 F= -.11622583E+04 E0= -.11622583E+04  d E =-.211185E-02  mag=     3.0000
       N       E                     dE             d eps       ncg     rms          rms(c)
DAV:   1    -0.116225891820E+04   -0.63605E-03   -0.58955E-01  1536   0.134E+00    0.146E-01
RMM:   2    -0.116225961619E+04   -0.69799E-03   -0.86469E-03  1686   0.169E-01    0.133E-01
RMM:   3    -0.116225970948E+04   -0.93292E-04   -0.20664E-03  1758   0.715E-02    0.118E-01
RMM:   4    -0.116225960406E+04    0.10542E-03   -0.59832E-04  1685   0.365E-02    0.676E-02
RMM:   5    -0.116225961200E+04   -0.79349E-05   -0.30646E-04  1606   0.235E-02    0.337E-02
RMM:   6    -0.116225961222E+04   -0.21781E-06   -0.54396E-05  1711   0.114E-02    0.180E-02
RMM:   7    -0.116225961206E+04    0.15464E-06   -0.22667E-05  1625   0.610E-03    0.121E-02
RMM:   8    -0.116225961149E+04    0.57460E-06   -0.82527E-06  1545   0.393E-03
  16 F= -.11622596E+04 E0= -.11622596E+04  d E =-.132845E-02  mag=     3.0000
       N       E                     dE             d eps       ncg     rms          rms(c)
DAV:   1    -0.116225962204E+04   -0.99744E-05   -0.73558E-03  1664   0.150E-01    0.170E-02
RMM:   2    -0.116225963016E+04   -0.81255E-05   -0.10313E-04  1696   0.184E-02    0.155E-02
RMM:   3    -0.116225963176E+04   -0.15982E-05   -0.25428E-05  1762   0.790E-03    0.137E-02
RMM:   4    -0.116225963200E+04   -0.24239E-06   -0.64202E-06  1553   0.398E-03
  17 F= -.11622596E+04 E0= -.11622596E+04  d E =-.134897E-02  mag=     3.0000
       N       E                     dE             d eps       ncg     rms          rms(c)
DAV:   1    -0.116226026661E+04   -0.63485E-03   -0.42264E-01  1536   0.112E+00    0.117E-01
RMM:   2    -0.116226072490E+04   -0.45830E-03   -0.57265E-03  1675   0.138E-01    0.107E-01
RMM:   3    -0.116226078425E+04   -0.59346E-04   -0.13988E-03  1725   0.589E-02    0.950E-02
RMM:   4    -0.116226071544E+04    0.68810E-04   -0.45411E-04  1698   0.316E-02    0.504E-02
RMM:   5    -0.116226072768E+04   -0.12236E-04   -0.19811E-04  1679   0.190E-02    0.257E-02
RMM:   6    -0.116226072360E+04    0.40745E-05   -0.32613E-05  1669   0.867E-03    0.149E-02
RMM:   7    -0.116226072419E+04   -0.59291E-06   -0.15528E-05  1571   0.505E-03    0.966E-03
RMM:   8    -0.116226072414E+04    0.51026E-07   -0.54229E-06  1502   0.310E-03
  18 F= -.11622607E+04 E0= -.11622607E+04  d E =-.109214E-02  mag=     3.0000
