       N       E                     dE             d eps       ncg     rms          rms(c)
DAV:   1     0.482556145941E+04    0.48256E+04   -0.17986E+05  1856   0.957E+02
DAV:   2    -0.741935436044E+02   -0.48998E+04   -0.45051E+04  2464   0.217E+02
DAV:   3    -0.120322827789E+04   -0.11290E+04   -0.11215E+04  1920   0.112E+02
DAV:   4    -0.125167261654E+04   -0.48444E+02   -0.48114E+02  1888   0.307E+01
DAV:   5    -0.125296632800E+04   -0.12937E+01   -0.12901E+01  2208   0.482E+00    0.798E+01
RMM:   6    -0.124040042034E+04    0.12566E+02   -0.84920E+01  1761   0.103E+01    0.652E+01
RMM:   7    -0.122062228656E+04    0.19778E+02   -0.10707E+01  1610   0.447E+00    0.453E+01
RMM:   8    -0.120445359422E+04    0.16169E+02   -0.13307E+01  1579   0.467E+00    0.357E+01
RMM:   9    -0.118572813327E+04    0.18725E+02   -0.25220E+01  1648   0.658E+00    0.257E+01
RMM:  10    -0.117871755742E+04    0.70106E+01   -0.14395E+01  1570   0.521E+00    0.180E+01
RMM:  11    -0.117940627200E+04   -0.68871E+00   -0.13933E+01  1600   0.503E+00    0.917E+00
RMM:  12    -0.117940816783E+04   -0.18958E-02   -0.15150E+00  1738   0.220E+00    0.671E+00
RMM:  13    -0.117891322370E+04    0.49494E+00   -0.10517E+00  1547   0.136E+00    0.681E+00
RMM:  14    -0.117885831311E+04    0.54911E-01   -0.13793E-01  1587   0.604E-01    0.606E+00
RMM:  15    -0.117888444699E+04   -0.26134E-01   -0.84005E-02  1585   0.381E-01    0.492E+00
RMM:  16    -0.117885023552E+04    0.34211E-01   -0.98244E-02  1730   0.366E-01    0.256E+00
RMM:  17    -0.117882478444E+04    0.25451E-01   -0.60144E-02  1699   0.279E-01    0.204E+00
RMM:  18    -0.117883884419E+04   -0.14060E-01   -0.42671E-02  1673   0.258E-01    0.221E+00
RMM:  19    -0.117883366385E+04    0.51803E-02   -0.11880E-02  1700   0.154E-01    0.163E+00
RMM:  20    -0.117883581957E+04   -0.21557E-02   -0.27512E-03  1683   0.106E-01    0.928E-01
RMM:  21    -0.117883573624E+04    0.83331E-04   -0.71848E-03  1744   0.909E-02    0.552E-01
RMM:  22    -0.117883612793E+04   -0.39170E-03   -0.17452E-03  1618   0.597E-02    0.488E-01
RMM:  23    -0.117883574056E+04    0.38737E-03   -0.77014E-04  1646   0.406E-02    0.173E-01
RMM:  24    -0.117883590320E+04   -0.16264E-03   -0.12024E-04  1777   0.178E-02    0.249E-01
RMM:  25    -0.117883592935E+04   -0.26144E-04   -0.12936E-04  1643   0.138E-02    0.110E-01
RMM:  26    -0.117883593901E+04   -0.96645E-05   -0.15501E-05  1562   0.602E-03    0.159E-01
RMM:  27    -0.117883592356E+04    0.15453E-04   -0.11746E-05  1489   0.466E-03    0.111E-01
RMM:  28    -0.117883594692E+04   -0.23366E-04   -0.23191E-05  1578   0.582E-03    0.711E-02
RMM:  29    -0.117883594790E+04   -0.97646E-06   -0.83192E-06  1448   0.378E-03
   1 F= -.11859935E+04 E0= -.11859825E+04  d E =-.118599E+04  mag=     2.5181
       N       E                     dE             d eps       ncg     rms          rms(c)
DAV:   1    -0.117883542312E+04    0.52380E-03   -0.46284E-01  1536   0.118E+00    0.384E-01
RMM:   2    -0.117883682627E+04   -0.14032E-02   -0.13395E-02  1715   0.185E-01    0.633E-01
RMM:   3    -0.117883649351E+04    0.33276E-03   -0.29654E-03  1890   0.872E-02    0.540E-01
RMM:   4    -0.117883636016E+04    0.13334E-03   -0.69010E-04  1830   0.443E-02    0.463E-01
RMM:   5    -0.117883607476E+04    0.28540E-03   -0.60407E-04  1594   0.312E-02    0.339E-01
RMM:   6    -0.117883596191E+04    0.11285E-03   -0.40045E-04  1624   0.250E-02    0.842E-02
RMM:   7    -0.117883609827E+04   -0.13635E-03   -0.10138E-04  1615   0.174E-02    0.152E-01
RMM:   8    -0.117883614119E+04   -0.42922E-04   -0.33396E-05  1632   0.104E-02    0.192E-01
RMM:   9    -0.117883610938E+04    0.31803E-04   -0.32524E-05  1664   0.799E-03    0.659E-02
RMM:  10    -0.117883614530E+04   -0.35918E-04   -0.42925E-05  1568   0.875E-03    0.567E-02
RMM:  11    -0.117883614806E+04   -0.27538E-05   -0.10261E-05  1672   0.454E-03    0.399E-02
RMM:  12    -0.117883614653E+04    0.15228E-05   -0.74539E-06  1466   0.325E-03    0.735E-03
RMM:  13    -0.117883614801E+04   -0.14743E-05   -0.24673E-06  1150   0.228E-03    0.652E-03
RMM:  14    -0.117883614846E+04   -0.45033E-06   -0.14683E-06  1048   0.172E-03
   2 F= -.11859946E+04 E0= -.11859832E+04  d E =-.113965E-02  mag=     2.4848
       N       E                     dE             d eps       ncg     rms          rms(c)
DAV:   1    -0.117883660418E+04   -0.45617E-03   -0.37092E-02  1664   0.334E-01    0.109E-01
RMM:   2    -0.117883668821E+04   -0.84031E-04   -0.89375E-04  1704   0.505E-02    0.193E-01
RMM:   3    -0.117883664738E+04    0.40832E-04   -0.17663E-04  1770   0.234E-02    0.148E-01
RMM:   4    -0.117883663747E+04    0.99078E-05   -0.46899E-05  1740   0.122E-02    0.127E-01
RMM:   5    -0.117883661537E+04    0.22100E-04   -0.53247E-05  1592   0.928E-03    0.808E-02
RMM:   6    -0.117883661301E+04    0.23545E-05   -0.21969E-05  1619   0.604E-03    0.229E-02
RMM:   7    -0.117883662690E+04   -0.13886E-04   -0.12379E-05  1580   0.555E-03    0.489E-02
RMM:   8    -0.117883662961E+04   -0.27098E-05   -0.29631E-06  1144   0.326E-03    0.578E-02
RMM:   9    -0.117883662567E+04    0.39387E-05   -0.11001E-06  1050   0.183E-03    0.413E-02
RMM:  10    -0.117883662788E+04   -0.22087E-05   -0.36548E-06  1194   0.234E-03    0.203E-02
RMM:  11    -0.117883662858E+04   -0.70312E-06   -0.84291E-07  1026   0.129E-03
   3 F= -.11859948E+04 E0= -.11859835E+04  d E =-.135349E-02  mag=     2.4940
       N       E                     dE             d eps       ncg     rms          rms(c)
DAV:   1    -0.117883718724E+04   -0.55936E-03   -0.16251E-01  1792   0.660E-01    0.304E-01
RMM:   2    -0.117883778091E+04   -0.59367E-03   -0.37413E-03  1725   0.964E-02    0.603E-01
RMM:   3    -0.117883728687E+04    0.49404E-03   -0.85269E-04  1757   0.506E-02    0.369E-01
RMM:   4    -0.117883734799E+04   -0.61116E-04   -0.21742E-04  1719   0.271E-02    0.317E-01
RMM:   5    -0.117883727250E+04    0.75492E-04   -0.13780E-04  1612   0.154E-02    0.231E-01
RMM:   6    -0.117883724422E+04    0.28281E-04   -0.73318E-05  1657   0.105E-02    0.667E-02
RMM:   7    -0.117883733569E+04   -0.91472E-04   -0.76183E-05  1625   0.131E-02    0.130E-01
RMM:   8    -0.117883735231E+04   -0.16624E-04   -0.17712E-05  1582   0.801E-03    0.138E-01
RMM:   9    -0.117883733270E+04    0.19615E-04   -0.83244E-06  1383   0.483E-03    0.726E-02
RMM:  10    -0.117883735486E+04   -0.22166E-04   -0.19224E-05  1675   0.555E-03    0.470E-02
RMM:  11    -0.117883735620E+04   -0.13410E-05   -0.37061E-06  1269   0.260E-03    0.160E-02
RMM:  12    -0.117883735840E+04   -0.22006E-05   -0.16818E-06  1089   0.188E-03    0.400E-03
RMM:  13    -0.117883735905E+04   -0.64154E-06   -0.46316E-07   984   0.111E-03
   4 F= -.11859961E+04 E0= -.11859845E+04  d E =-.124334E-02  mag=     2.4693
       N       E                     dE             d eps       ncg     rms          rms(c)
DAV:   1    -0.117883724765E+04    0.11075E-03   -0.15437E-01  1600   0.645E-01    0.302E-01
RMM:   2    -0.117883782406E+04   -0.57641E-03   -0.35647E-03  1727   0.945E-02    0.604E-01
RMM:   3    -0.117883733305E+04    0.49101E-03   -0.82902E-04  1748   0.498E-02    0.373E-01
RMM:   4    -0.117883740294E+04   -0.69892E-04   -0.19782E-04  1715   0.266E-02    0.328E-01
RMM:   5    -0.117883732758E+04    0.75362E-04   -0.12873E-04  1613   0.151E-02    0.245E-01
RMM:   6    -0.117883729790E+04    0.29682E-04   -0.70525E-05  1660   0.103E-02    0.785E-02
RMM:   7    -0.117883739237E+04   -0.94469E-04   -0.80236E-05  1663   0.130E-02    0.140E-01
RMM:   8    -0.117883740987E+04   -0.17503E-04   -0.20293E-05  1578   0.845E-03    0.138E-01
RMM:   9    -0.117883739151E+04    0.18360E-04   -0.92998E-06  1408   0.490E-03    0.727E-02
RMM:  10    -0.117883741420E+04   -0.22694E-04   -0.20258E-05  1698   0.569E-03    0.486E-02
RMM:  11    -0.117883741482E+04   -0.61967E-06   -0.36000E-06  1264   0.259E-03
   5 F= -.11859966E+04 E0= -.11859848E+04  d E =-.179855E-02  mag=     2.4441
       N       E                     dE             d eps       ncg     rms          rms(c)
DAV:   1    -0.117883786176E+04   -0.44756E-03   -0.23510E-01  1664   0.780E-01    0.339E-01
RMM:   2    -0.117883873975E+04   -0.87799E-03   -0.52464E-03  1715   0.114E-01    0.741E-01
RMM:   3    -0.117883797910E+04    0.76065E-03   -0.11812E-03  1761   0.599E-02    0.361E-01
RMM:   4    -0.117883816044E+04   -0.18134E-03   -0.26143E-04  1751   0.299E-02    0.335E-01
RMM:   5    -0.117883812188E+04    0.38555E-04   -0.18864E-04  1660   0.180E-02    0.255E-01
RMM:   6    -0.117883809316E+04    0.28719E-04   -0.64989E-05  1745   0.995E-03    0.108E-01
RMM:   7    -0.117883821286E+04   -0.11969E-03   -0.97696E-05  1689   0.138E-02    0.139E-01
RMM:   8    -0.117883824691E+04   -0.34054E-04   -0.21076E-05  1576   0.866E-03    0.166E-01
RMM:   9    -0.117883821901E+04    0.27903E-04   -0.85684E-06  1356   0.538E-03    0.119E-01
RMM:  10    -0.117883823885E+04   -0.19836E-04   -0.26750E-05  1705   0.595E-03    0.612E-02
RMM:  11    -0.117883824472E+04   -0.58706E-05   -0.47744E-06  1353   0.306E-03    0.326E-02
RMM:  12    -0.117883824783E+04   -0.31128E-05   -0.37330E-06  1274   0.255E-03    0.442E-03
RMM:  13    -0.117883824967E+04   -0.18394E-05   -0.83617E-07   993   0.163E-03    0.266E-03
RMM:  14    -0.117883824985E+04   -0.18567E-06   -0.53804E-07   978   0.106E-03
   6 F= -.11859980E+04 E0= -.11859859E+04  d E =-.138991E-02  mag=     2.4153
       N       E                     dE             d eps       ncg     rms          rms(c)
DAV:   1    -0.117883793003E+04    0.31964E-03   -0.17515E-01  1664   0.672E-01    0.300E-01
RMM:   2    -0.117883859467E+04   -0.66464E-03   -0.39101E-03  1721   0.979E-02    0.666E-01
RMM:   3    -0.117883798784E+04    0.60683E-03   -0.89707E-04  1762   0.525E-02    0.324E-01
RMM:   4    -0.117883813929E+04   -0.15144E-03   -0.19712E-04  1740   0.263E-02    0.305E-01
RMM:   5    -0.117883810532E+04    0.33965E-04   -0.13034E-04  1656   0.153E-02    0.244E-01
RMM:   6    -0.117883808091E+04    0.24408E-04   -0.52526E-05  1743   0.883E-03    0.107E-01
RMM:   7    -0.117883818044E+04   -0.99522E-04   -0.90200E-05  1717   0.128E-02    0.126E-01
RMM:   8    -0.117883820822E+04   -0.27781E-04   -0.18398E-05  1566   0.801E-03    0.147E-01
RMM:   9    -0.117883818722E+04    0.20999E-04   -0.80132E-06  1350   0.492E-03    0.963E-02
RMM:  10    -0.117883820424E+04   -0.17021E-04   -0.21693E-05  1680   0.545E-03    0.517E-02
RMM:  11    -0.117883820813E+04   -0.38917E-05   -0.35933E-06  1243   0.267E-03    0.287E-02
RMM:  12    -0.117883821005E+04   -0.19216E-05   -0.30091E-06  1204   0.221E-03    0.437E-03
RMM:  13    -0.117883821139E+04   -0.13338E-05   -0.70991E-07   987   0.143E-03    0.281E-03
RMM:  14    -0.117883821154E+04   -0.15311E-06   -0.41669E-07   974   0.935E-04
   7 F= -.11859984E+04 E0= -.11859861E+04  d E =-.183006E-02  mag=     2.3895
       N       E                     dE             d eps       ncg     rms          rms(c)
DAV:   1    -0.117883852960E+04   -0.31822E-03   -0.90394E-02  1632   0.485E-01    0.219E-01
RMM:   2    -0.117883889726E+04   -0.36766E-03   -0.22026E-03  1754   0.695E-02    0.514E-01
RMM:   3    -0.117883854097E+04    0.35629E-03   -0.52173E-04  1751   0.382E-02    0.220E-01
RMM:   4    -0.117883865272E+04   -0.11174E-03   -0.10888E-04  1739   0.190E-02    0.212E-01
RMM:   5    -0.117883865174E+04    0.97727E-06   -0.62336E-05  1629   0.107E-02    0.174E-01
RMM:   6    -0.117883863967E+04    0.12069E-04   -0.26718E-05  1699   0.622E-03    0.866E-02
RMM:   7    -0.117883869300E+04   -0.53334E-04   -0.47111E-05  1699   0.902E-03    0.750E-02
RMM:   8    -0.117883871216E+04   -0.19156E-04   -0.81820E-06  1331   0.526E-03    0.103E-01
RMM:   9    -0.117883870074E+04    0.11418E-04   -0.41550E-06  1189   0.362E-03    0.634E-02
RMM:  10    -0.117883870962E+04   -0.88772E-05   -0.10876E-05  1519   0.382E-03    0.299E-02
RMM:  11    -0.117883871155E+04   -0.19333E-05   -0.13221E-06  1058   0.167E-03    0.181E-02
RMM:  12    -0.117883871260E+04   -0.10467E-05   -0.13573E-06  1078   0.143E-03    0.246E-03
RMM:  13    -0.117883871310E+04   -0.50471E-06   -0.26579E-07   970   0.898E-04
   8 F= -.11859993E+04 E0= -.11859867E+04  d E =-.853634E-03  mag=     2.3701
       N       E                     dE             d eps       ncg     rms          rms(c)
DAV:   1    -0.117883782085E+04    0.89175E-03   -0.81361E-01  1536   0.146E+00    0.673E-01
RMM:   2    -0.117884158419E+04   -0.37633E-02   -0.19975E-02  1748   0.210E-01    0.149E+00
RMM:   3    -0.117883844135E+04    0.31428E-02   -0.47017E-03  1751   0.114E-01    0.661E-01
RMM:   4    -0.117883923935E+04   -0.79800E-03   -0.98620E-04  1761   0.558E-02    0.660E-01
RMM:   5    -0.117883915318E+04    0.86171E-04   -0.44436E-04  1674   0.298E-02    0.587E-01
RMM:   6    -0.117883899349E+04    0.15969E-03   -0.23094E-04  1771   0.179E-02    0.368E-01
RMM:   7    -0.117883924026E+04   -0.24677E-03   -0.71082E-04  1806   0.327E-02    0.220E-01
RMM:   8    -0.117883945712E+04   -0.21686E-03   -0.99698E-05  1634   0.171E-02    0.346E-01
RMM:   9    -0.117883935723E+04    0.99891E-04   -0.55049E-05  1623   0.133E-02    0.189E-01
RMM:  10    -0.117883945489E+04   -0.97666E-04   -0.11716E-04  1757   0.126E-02    0.120E-01
RMM:  11    -0.117883946279E+04   -0.78971E-05   -0.24349E-05  1670   0.624E-03    0.549E-02
RMM:  12    -0.117883947195E+04   -0.91574E-05   -0.15246E-05  1571   0.488E-03    0.872E-03
RMM:  13    -0.117883947553E+04   -0.35852E-05   -0.30034E-06  1218   0.275E-03    0.649E-03
RMM:  14    -0.117883947595E+04   -0.41311E-06   -0.14352E-06  1074   0.164E-03
   9 F= -.11860011E+04 E0= -.11859881E+04  d E =-.266789E-02  mag=     2.3079
       N       E                     dE             d eps       ncg     rms          rms(c)
DAV:   1    -0.117883098717E+04    0.84884E-02   -0.32547E+00  1536   0.291E+00    0.139E+00
RMM:   2    -0.117884630297E+04   -0.15316E-01   -0.80644E-02  1747   0.420E-01    0.278E+00
RMM:   3    -0.117883476027E+04    0.11543E-01   -0.18997E-02  1756   0.226E-01    0.136E+00
RMM:   4    -0.117883707301E+04   -0.23127E-02   -0.36403E-03  1763   0.107E-01    0.142E+00
RMM:   5    -0.117883639634E+04    0.67668E-03   -0.97406E-04  1748   0.492E-02    0.143E+00
RMM:   6    -0.117883584249E+04    0.55385E-03   -0.82756E-04  1757   0.339E-02    0.102E+00
RMM:   7    -0.117883649874E+04   -0.65625E-03   -0.63615E-03  1940   0.917E-02    0.227E-01
RMM:   8    -0.117883735715E+04   -0.85841E-03   -0.66627E-04  1711   0.343E-02    0.777E-01
RMM:   9    -0.117883718476E+04    0.17239E-03   -0.25306E-04  1660   0.330E-02    0.520E-01
RMM:  10    -0.117883755830E+04   -0.37354E-03   -0.83727E-04  1825   0.321E-02    0.312E-01
RMM:  11    -0.117883766739E+04   -0.10909E-03   -0.35273E-04  1755   0.218E-02    0.153E-01
RMM:  12    -0.117883768714E+04   -0.19750E-04   -0.90194E-05  1724   0.109E-02    0.419E-02
RMM:  13    -0.117883770552E+04   -0.18380E-04   -0.27972E-05  1638   0.865E-03    0.239E-02
RMM:  14    -0.117883771811E+04   -0.12597E-04   -0.96596E-06  1476   0.469E-03    0.656E-02
RMM:  15    -0.117883770998E+04    0.81362E-05   -0.56820E-06  1288   0.396E-03    0.147E-02
RMM:  16    -0.117883771371E+04   -0.37317E-05   -0.38528E-06  1231   0.274E-03    0.106E-02
RMM:  17    -0.117883771376E+04   -0.54461E-07   -0.42690E-06  1357   0.251E-03
  10 F= -.11860014E+04 E0= -.11859876E+04  d E =-.298458E-02  mag=     2.1631
       N       E                     dE             d eps       ncg     rms          rms(c)
DAV:   1    -0.117883773583E+04   -0.22118E-04   -0.63333E-01  1536   0.128E+00    0.627E-01
RMM:   2    -0.117884086496E+04   -0.31291E-02   -0.15644E-02  1747   0.186E-01    0.152E+00
RMM:   3    -0.117883815850E+04    0.27065E-02   -0.39100E-03  1741   0.106E-01    0.763E-01
RMM:   4    -0.117883891230E+04   -0.75380E-03   -0.78048E-04  1730   0.549E-02    0.785E-01
RMM:   5    -0.117883868210E+04    0.23020E-03   -0.26907E-04  1690   0.261E-02    0.758E-01
RMM:   6    -0.117883839543E+04    0.28667E-03   -0.25016E-04  1735   0.184E-02    0.451E-01
RMM:   7    -0.117883874152E+04   -0.34609E-03   -0.89807E-04  1857   0.358E-02    0.210E-01
RMM:   8    -0.117883896214E+04   -0.22062E-03   -0.12935E-04  1654   0.200E-02    0.221E-01
RMM:   9    -0.117883896356E+04   -0.14207E-05   -0.42267E-05  1592   0.106E-02    0.198E-01
RMM:  10    -0.117883898760E+04   -0.24045E-04   -0.10202E-04  1770   0.116E-02    0.494E-02
RMM:  11    -0.117883901762E+04   -0.30014E-04   -0.11660E-05  1591   0.555E-03    0.752E-02
RMM:  12    -0.117883901598E+04    0.16313E-05   -0.16764E-05  1583   0.453E-03    0.104E-02
RMM:  13    -0.117883902090E+04   -0.49143E-05   -0.37773E-06  1255   0.289E-03    0.699E-03
RMM:  14    -0.117883902165E+04   -0.75088E-06   -0.90561E-07  1036   0.134E-03
  11 F= -.11860018E+04 E0= -.11859883E+04  d E =-.337926E-02  mag=     2.2308
       N       E                     dE             d eps       ncg     rms          rms(c)
DAV:   1    -0.117883927679E+04   -0.25589E-03   -0.10099E-01  1536   0.531E-01    0.223E-01
RMM:   2    -0.117883968674E+04   -0.40995E-03   -0.27410E-03  1759   0.761E-02    0.504E-01
RMM:   3    -0.117883937604E+04    0.31070E-03   -0.64908E-04  1750   0.404E-02    0.255E-01
RMM:   4    -0.117883947361E+04   -0.97569E-04   -0.13209E-04  1754   0.205E-02    0.262E-01
RMM:   5    -0.117883943778E+04    0.35828E-04   -0.36587E-05  1651   0.933E-03    0.268E-01
RMM:   6    -0.117883941619E+04    0.21593E-04   -0.41272E-05  1674   0.752E-03    0.156E-01
RMM:   7    -0.117883948595E+04   -0.69762E-04   -0.13864E-04  1835   0.143E-02    0.392E-02
RMM:   8    -0.117883951744E+04   -0.31494E-04   -0.15079E-05  1539   0.582E-03    0.120E-01
RMM:   9    -0.117883951575E+04    0.16886E-05   -0.76887E-06  1351   0.545E-03    0.825E-02
RMM:  10    -0.117883952203E+04   -0.62812E-05   -0.15571E-05  1567   0.445E-03    0.471E-02
RMM:  11    -0.117883952620E+04   -0.41620E-05   -0.74482E-06  1369   0.323E-03    0.259E-02
RMM:  12    -0.117883952677E+04   -0.57016E-06   -0.18333E-06  1132   0.159E-03
  12 F= -.11860027E+04 E0= -.11859891E+04  d E =-.877033E-03  mag=     2.2046
       N       E                     dE             d eps       ncg     rms          rms(c)
DAV:   1    -0.117883836539E+04    0.11608E-02   -0.90971E-01  1536   0.159E+00    0.684E-01
RMM:   2    -0.117884234836E+04   -0.39830E-02   -0.24791E-02  1758   0.228E-01    0.146E+00
RMM:   3    -0.117883968116E+04    0.26672E-02   -0.58572E-03  1757   0.121E-01    0.779E-01
RMM:   4    -0.117884040061E+04   -0.71944E-03   -0.11537E-03  1759   0.604E-02    0.809E-01
RMM:   5    -0.117884011053E+04    0.29007E-03   -0.27905E-04  1807   0.264E-02    0.835E-01
RMM:   6    -0.117883996165E+04    0.14888E-03   -0.32035E-04  1716   0.212E-02    0.523E-01
RMM:   7    -0.117884029387E+04   -0.33221E-03   -0.54353E-04  1758   0.279E-02    0.326E-01
RMM:   8    -0.117884054574E+04   -0.25187E-03   -0.68845E-04  1866   0.306E-02    0.395E-01
RMM:   9    -0.117884058135E+04   -0.35618E-04   -0.10003E-04  1674   0.200E-02    0.302E-01
RMM:  10    -0.117884065388E+04   -0.72524E-04   -0.23496E-04  1780   0.170E-02    0.195E-01
RMM:  11    -0.117884067983E+04   -0.25956E-04   -0.86593E-05  1724   0.109E-02    0.717E-02
RMM:  12    -0.117884070218E+04   -0.22347E-04   -0.34377E-05  1657   0.726E-03    0.170E-02
RMM:  13    -0.117884070797E+04   -0.57872E-05   -0.86565E-06  1444   0.404E-03    0.132E-02
RMM:  14    -0.117884071046E+04   -0.24918E-05   -0.29577E-06  1234   0.226E-03    0.291E-02
RMM:  15    -0.117884070888E+04    0.15789E-05   -0.18077E-06  1102   0.200E-03    0.838E-03
RMM:  16    -0.117884071005E+04   -0.11669E-05   -0.13236E-06  1077   0.163E-03    0.637E-03
RMM:  17    -0.117884071008E+04   -0.29169E-07   -0.13045E-06  1055   0.143E-03
  13 F= -.11860050E+04 E0= -.11859910E+04  d E =-.316838E-02  mag=     2.1176
       N       E                     dE             d eps       ncg     rms          rms(c)
DAV:   1    -0.117883214577E+04    0.85643E-02   -0.36383E+00  1536   0.318E+00    0.135E+00
RMM:   2    -0.117884739580E+04   -0.15250E-01   -0.99290E-02  1755   0.452E-01    0.259E+00
RMM:   3    -0.117883895770E+04    0.84381E-02   -0.23204E-02  1764   0.233E-01    0.154E+00
RMM:   4    -0.117884086143E+04   -0.19037E-02   -0.42163E-03  1771   0.113E-01    0.162E+00
RMM:   5    -0.117883900545E+04    0.18560E-02   -0.10119E-03  1925   0.519E-02    0.161E+00
RMM:   6    -0.117883791975E+04    0.10857E-02   -0.14563E-04  1825   0.215E-02    0.140E+00
RMM:   7    -0.117883907650E+04   -0.11568E-02   -0.41645E-04  1715   0.286E-02    0.135E+00
RMM:   8    -0.117883712702E+04    0.19495E-02   -0.76004E-04  1781   0.376E-02    0.995E-01
RMM:   9    -0.117883982690E+04   -0.26999E-02   -0.23086E-03  2009   0.631E-02    0.561E-01
RMM:  10    -0.117884127203E+04   -0.14451E-02   -0.42673E-03  2387   0.766E-02    0.444E-01
RMM:  11    -0.117884168511E+04   -0.41307E-03   -0.26028E-03  2155   0.648E-02    0.866E-01
RMM:  12    -0.117884099620E+04    0.68891E-03   -0.47422E-04  1800   0.301E-02    0.573E-01
RMM:  13    -0.117884130074E+04   -0.30454E-03   -0.25083E-03  2119   0.601E-02    0.188E-01
RMM:  14    -0.117884155488E+04   -0.25414E-03   -0.17985E-04  1726   0.192E-02    0.105E-01
RMM:  15    -0.117884175881E+04   -0.20394E-03   -0.97486E-05  1645   0.138E-02    0.203E-01
RMM:  16    -0.117884169894E+04    0.59879E-04   -0.88694E-05  1755   0.159E-02    0.964E-02
RMM:  17    -0.117884171213E+04   -0.13198E-04   -0.10214E-04  1808   0.116E-02    0.438E-02
RMM:  18    -0.117884175167E+04   -0.39537E-04   -0.38060E-05  1671   0.814E-03    0.215E-02
RMM:  19    -0.117884175739E+04   -0.57226E-05   -0.14711E-05  1556   0.496E-03    0.189E-02
RMM:  20    -0.117884176061E+04   -0.32181E-05   -0.64227E-06  1323   0.422E-03    0.978E-03
RMM:  21    -0.117884176119E+04   -0.57489E-06   -0.16290E-06  1093   0.188E-03
  14 F= -.11860082E+04 E0= -.11859942E+04  d E =-.639787E-02  mag=     1.9036
       N       E                     dE             d eps       ncg     rms          rms(c)
DAV:   1    -0.117879821173E+04    0.43549E-01   -0.14560E+01  1536   0.632E+00    0.233E+00
RMM:   2    -0.117884662692E+04   -0.48415E-01   -0.38618E-01  1749   0.886E-01    0.346E+00
RMM:   3    -0.117883533135E+04    0.11296E-01   -0.86886E-02  1793   0.425E-01    0.276E+00
RMM:   4    -0.117883719084E+04   -0.18595E-02   -0.14615E-02  1787   0.198E-01    0.275E+00
RMM:   5    -0.117883454866E+04    0.26422E-02   -0.31921E-03  1978   0.848E-02    0.277E+00
RMM:   6    -0.117883186968E+04    0.26790E-02   -0.16603E-03  1716   0.541E-02    0.218E+00
RMM:   7    -0.117883267114E+04   -0.80147E-03   -0.32445E-04  1859   0.236E-02    0.218E+00
RMM:   8    -0.117883608471E+04   -0.34136E-02   -0.42593E-03  1905   0.679E-02    0.211E+00
RMM:   9    -0.117884383695E+04   -0.77522E-02   -0.12259E-02  2282   0.122E-01    0.179E+00
RMM:  10    -0.117884572043E+04   -0.18835E-02   -0.24682E-02  2369   0.177E-01    0.127E+00
RMM:  11    -0.117884477869E+04    0.94174E-03   -0.50718E-03  2007   0.769E-02    0.115E+00
RMM:  12    -0.117884418383E+04    0.59485E-03   -0.79078E-04  1753   0.367E-02    0.106E+00
RMM:  13    -0.117884425256E+04   -0.68729E-04   -0.19769E-03  2042   0.527E-02    0.107E+00
RMM:  14    -0.117884324981E+04    0.10028E-02   -0.58806E-04  1765   0.325E-02    0.891E-01
RMM:  15    -0.117884177025E+04    0.14796E-02   -0.23581E-03  2167   0.590E-02    0.515E-01
RMM:  16    -0.117884295827E+04   -0.11880E-02   -0.84433E-04  1794   0.345E-02    0.588E-01
RMM:  17    -0.117884221291E+04    0.74536E-03   -0.18114E-04  1705   0.199E-02    0.561E-01
RMM:  18    -0.117884209648E+04    0.11643E-03   -0.63518E-05  1633   0.112E-02    0.574E-01
RMM:  19    -0.117884244950E+04   -0.35301E-03   -0.36815E-04  1886   0.224E-02    0.507E-01
RMM:  20    -0.117884275543E+04   -0.30593E-03   -0.20312E-03  2295   0.473E-02    0.403E-01
RMM:  21    -0.117884281040E+04   -0.54972E-04   -0.99965E-04  2434   0.380E-02    0.304E-01
RMM:  22    -0.117884295541E+04   -0.14502E-03   -0.33993E-04  2181   0.238E-02    0.258E-01
RMM:  23    -0.117884294198E+04    0.13435E-04   -0.44716E-04  2291   0.273E-02    0.134E-01
RMM:  24    -0.117884292859E+04    0.13387E-04   -0.95568E-05  1867   0.132E-02    0.925E-02
RMM:  25    -0.117884288874E+04    0.39852E-04   -0.88470E-05  1837   0.121E-02    0.790E-02
RMM:  26    -0.117884290344E+04   -0.14705E-04   -0.55641E-05  1791   0.964E-03    0.455E-02
RMM:  27    -0.117884289389E+04    0.95524E-05   -0.36058E-05  1706   0.766E-03    0.206E-02
RMM:  28    -0.117884289387E+04    0.26899E-07   -0.10039E-05  1554   0.437E-03    0.106E-02
RMM:  29    -0.117884289539E+04   -0.15248E-05   -0.36494E-06  1191   0.254E-03    0.990E-03
RMM:  30    -0.117884289602E+04   -0.62724E-06   -0.10351E-06  1044   0.147E-03
  15 F= -.11860135E+04 E0= -.11860083E+04  d E =-.117154E-01  mag=     1.0061
       N       E                     dE             d eps       ncg     rms          rms(c)
DAV:   1    -0.117863096320E+04    0.21193E+00   -0.58237E+01  1536   0.126E+01    0.193E+00
RMM:   2    -0.117876379909E+04   -0.13284E+00   -0.15529E+00  1739   0.174E+00    0.186E+00
RMM:   3    -0.117878977815E+04   -0.25979E-01   -0.30978E-01  1790   0.733E-01    0.153E+00
RMM:   4    -0.117879062134E+04   -0.84319E-03   -0.45555E-02  1944   0.289E-01    0.145E+00
RMM:   5    -0.117879051909E+04    0.10225E-03   -0.28946E-02  1568   0.234E-01    0.933E-01
RMM:   6    -0.117879398364E+04   -0.34646E-02   -0.15241E-02  1569   0.167E-01    0.663E-01
RMM:   7    -0.117879376663E+04    0.21701E-03   -0.36813E-03  1638   0.830E-02    0.348E-01
RMM:   8    -0.117879529078E+04   -0.15241E-02   -0.82059E-04  1872   0.416E-02    0.512E-01
RMM:   9    -0.117879509514E+04    0.19564E-03   -0.20922E-04  1978   0.234E-02    0.512E-01
RMM:  10    -0.117879501652E+04    0.78620E-04   -0.34992E-05  1890   0.767E-03    0.511E-01
RMM:  11    -0.117879493146E+04    0.85065E-04   -0.15390E-05  1526   0.531E-03    0.501E-01
RMM:  12    -0.117879576034E+04   -0.82888E-03   -0.11800E-02  2600   0.122E-01    0.356E-01
RMM:  13    -0.117879632921E+04   -0.56887E-03   -0.73938E-04  2266   0.385E-02    0.287E-01
RMM:  14    -0.117879648127E+04   -0.15206E-03   -0.60158E-04  2145   0.300E-02    0.230E-01
RMM:  15    -0.117879629632E+04    0.18495E-03   -0.46598E-04  2225   0.258E-02    0.176E-01
RMM:  16    -0.117879624730E+04    0.49020E-04   -0.19775E-04  1861   0.176E-02    0.140E-01
RMM:  17    -0.117879623052E+04    0.16773E-04   -0.21789E-04  1863   0.189E-02    0.939E-02
RMM:  18    -0.117879624152E+04   -0.10998E-04   -0.92014E-05  1704   0.126E-02    0.673E-02
RMM:  19    -0.117879625177E+04   -0.10249E-04   -0.71620E-05  1745   0.108E-02    0.468E-02
RMM:  20    -0.117879625875E+04   -0.69815E-05   -0.95834E-05  1852   0.125E-02    0.192E-02
RMM:  21    -0.117879627922E+04   -0.20472E-04   -0.22543E-05  1837   0.640E-03    0.113E-02
RMM:  22    -0.117879628553E+04   -0.63083E-05   -0.43135E-06  1295   0.290E-03    0.782E-03
RMM:  23    -0.117879628654E+04   -0.10049E-05   -0.20963E-06  1093   0.193E-03    0.482E-03
RMM:  24    -0.117879628707E+04   -0.53061E-06   -0.11468E-06  1046   0.140E-03
  16 F= -.11859745E+04 E0= -.11859731E+04  d E =0.273646E-01  mag=     1.0001
       N       E                     dE             d eps       ncg     rms          rms(c)
DAV:   1    -0.117870200868E+04    0.94278E-01   -0.52136E+01  1536   0.119E+01    0.187E+00
RMM:   2    -0.117882120105E+04   -0.11919E+00   -0.13799E+00  1751   0.164E+00    0.200E+00
RMM:   3    -0.117883563858E+04   -0.14438E-01   -0.23450E-01  1790   0.679E-01    0.143E+00
RMM:   4    -0.117883670430E+04   -0.10657E-02   -0.40286E-02  1916   0.273E-01    0.136E+00
RMM:   5    -0.117883753029E+04   -0.82599E-03   -0.22417E-02  1569   0.208E-01    0.114E+00
RMM:   6    -0.117883942670E+04   -0.18964E-02   -0.55445E-03  1637   0.110E-01    0.124E+00
RMM:   7    -0.117883888779E+04    0.53891E-03   -0.13354E-03  2039   0.513E-02    0.120E+00
RMM:   8    -0.117883574364E+04    0.31441E-02   -0.12530E-02  1778   0.123E-01    0.867E-01
RMM:   9    -0.117883302535E+04    0.27183E-02   -0.62766E-03  1711   0.911E-02    0.592E-01
RMM:  10    -0.117883804873E+04   -0.50234E-02   -0.10168E-02  1828   0.119E-01    0.434E-01
RMM:  11    -0.117884135169E+04   -0.33030E-02   -0.30555E-03  1668   0.671E-02    0.420E-01
RMM:  12    -0.117884190013E+04   -0.54845E-03   -0.36459E-03  1761   0.629E-02    0.214E-01
RMM:  13    -0.117884252183E+04   -0.62170E-03   -0.10421E-03  1648   0.388E-02    0.262E-01
RMM:  14    -0.117884265118E+04   -0.12935E-03   -0.30406E-04  1656   0.222E-02    0.256E-01
RMM:  15    -0.117884263346E+04    0.17722E-04   -0.91195E-05  1789   0.133E-02    0.280E-01
RMM:  16    -0.117884263380E+04   -0.34026E-06   -0.13401E-04  1698   0.135E-02    0.220E-01
RMM:  17    -0.117884259620E+04    0.37597E-04   -0.20323E-04  1768   0.168E-02    0.514E-02
RMM:  18    -0.117884259757E+04   -0.13719E-05   -0.94845E-05  1688   0.118E-02    0.394E-02
RMM:  19    -0.117884261483E+04   -0.17262E-04   -0.31967E-05  1589   0.792E-03    0.234E-02
RMM:  20    -0.117884261068E+04    0.41497E-05   -0.16852E-05  1597   0.547E-03    0.155E-02
RMM:  21    -0.117884261290E+04   -0.22140E-05   -0.53241E-06  1369   0.334E-03    0.455E-03
RMM:  22    -0.117884261339E+04   -0.49374E-06   -0.11411E-06  1029   0.165E-03
  17 F= -.11860137E+04 E0= -.11860088E+04  d E =-.118561E-01  mag=     1.0050
       N       E                     dE             d eps       ncg     rms          rms(c)
DAV:   1    -0.117884281271E+04   -0.19981E-03   -0.42029E-02  1728   0.335E-01    0.524E-02
RMM:   2    -0.117884288190E+04   -0.69187E-04   -0.10433E-03  1738   0.452E-02    0.537E-02
RMM:   3    -0.117884288309E+04   -0.11925E-05   -0.14428E-04  1776   0.181E-02    0.427E-02
RMM:   4    -0.117884289079E+04   -0.77022E-05   -0.30584E-05  1833   0.765E-03    0.430E-02
RMM:   5    -0.117884290318E+04   -0.12391E-04   -0.11880E-05  1503   0.493E-03    0.436E-02
RMM:   6    -0.117884290554E+04   -0.23601E-05   -0.40771E-06  1182   0.290E-03    0.478E-02
RMM:   7    -0.117884290399E+04    0.15541E-05   -0.14392E-06  1079   0.154E-03    0.465E-02
RMM:   8    -0.117884289879E+04    0.52016E-05   -0.18976E-05  1499   0.470E-03    0.201E-02
RMM:   9    -0.117884290768E+04   -0.88916E-05   -0.48823E-06  1369   0.288E-03    0.247E-02
RMM:  10    -0.117884291033E+04   -0.26548E-05   -0.48921E-06  1276   0.269E-03    0.208E-02
RMM:  11    -0.117884291144E+04   -0.11076E-05   -0.54850E-06  1207   0.238E-03    0.119E-02
RMM:  12    -0.117884291348E+04   -0.20395E-05   -0.13352E-06  1034   0.126E-03    0.789E-03
RMM:  13    -0.117884291521E+04   -0.17308E-05   -0.78799E-07  1012   0.108E-03    0.647E-03
RMM:  14    -0.117884291569E+04   -0.47842E-06   -0.72940E-07   963   0.940E-04
  18 F= -.11860142E+04 E0= -.11860095E+04  d E =-.526017E-03  mag=     1.0043
       N       E                     dE             d eps       ncg     rms          rms(c)
DAV:   1    -0.117884255382E+04    0.36139E-03   -0.37868E-01  1536   0.100E+00    0.159E-01
RMM:   2    -0.117884318847E+04   -0.63465E-03   -0.94331E-03  1735   0.136E-01    0.165E-01
RMM:   3    -0.117884323181E+04   -0.43338E-04   -0.13270E-03  1775   0.548E-02    0.128E-01
RMM:   4    -0.117884327255E+04   -0.40746E-04   -0.28751E-04  1933   0.231E-02    0.122E-01
RMM:   5    -0.117884337816E+04   -0.10560E-03   -0.14096E-04  1560   0.168E-02    0.113E-01
RMM:   6    -0.117884342581E+04   -0.47653E-04   -0.50854E-05  1583   0.101E-02    0.124E-01
RMM:   7    -0.117884342676E+04   -0.94654E-06   -0.23737E-05  1568   0.597E-03    0.116E-01
RMM:   8    -0.117884339904E+04    0.27719E-04   -0.92858E-05  1742   0.104E-02    0.464E-02
RMM:   9    -0.117884344378E+04   -0.44735E-04   -0.21457E-05  1582   0.634E-03    0.592E-02
RMM:  10    -0.117884346255E+04   -0.18776E-04   -0.35683E-05  1686   0.700E-03    0.509E-02
RMM:  11    -0.117884347283E+04   -0.10278E-04   -0.24985E-05  1481   0.520E-03    0.323E-02
RMM:  12    -0.117884348214E+04   -0.93140E-05   -0.81593E-06  1288   0.308E-03    0.216E-02
RMM:  13    -0.117884349179E+04   -0.96480E-05   -0.60803E-06  1281   0.286E-03    0.174E-02
RMM:  14    -0.117884349246E+04   -0.66411E-06   -0.62108E-06  1275   0.266E-03
  19 F= -.11860154E+04 E0= -.11860112E+04  d E =-.176860E-02  mag=     1.0027
       N       E                     dE             d eps       ncg     rms          rms(c)
DAV:   1    -0.117883923570E+04    0.42561E-02   -0.15155E+00  1536   0.201E+00    0.312E-01
RMM:   2    -0.117884197920E+04   -0.27435E-02   -0.37628E-02  1732   0.272E-01    0.318E-01
RMM:   3    -0.117884215164E+04   -0.17244E-03   -0.53357E-03  1775   0.110E-01    0.252E-01
RMM:   4    -0.117884229187E+04   -0.14024E-03   -0.11299E-03  1930   0.460E-02    0.237E-01
RMM:   5    -0.117884268060E+04   -0.38873E-03   -0.63767E-04  1561   0.353E-02    0.194E-01
RMM:   6    -0.117884283107E+04   -0.15047E-03   -0.26085E-04  1588   0.224E-02    0.202E-01
RMM:   7    -0.117884281840E+04    0.12670E-04   -0.14558E-04  1661   0.145E-02    0.161E-01
RMM:   8    -0.117884277099E+04    0.47413E-04   -0.21148E-04  1709   0.165E-02    0.797E-02
RMM:   9    -0.117884287038E+04   -0.99395E-04   -0.50815E-05  1597   0.941E-03    0.103E-01
RMM:  10    -0.117884292466E+04   -0.54281E-04   -0.14042E-04  1729   0.127E-02    0.743E-02
RMM:  11    -0.117884295588E+04   -0.31214E-04   -0.43455E-05  1626   0.731E-03    0.551E-02
RMM:  12    -0.117884296983E+04   -0.13955E-04   -0.16229E-05  1479   0.457E-03    0.373E-02
RMM:  13    -0.117884298809E+04   -0.18263E-04   -0.13678E-05  1485   0.432E-03    0.273E-02
RMM:  14    -0.117884298683E+04    0.12601E-05   -0.13226E-05  1477   0.398E-03    0.152E-02
RMM:  15    -0.117884298898E+04   -0.21482E-05   -0.43997E-06  1343   0.253E-03    0.977E-03
RMM:  16    -0.117884298849E+04    0.49544E-06   -0.39239E-06  1325   0.242E-03
  20 F= -.11860163E+04 E0= -.11860128E+04  d E =-.257181E-02  mag=     1.0009
       N       E                     dE             d eps       ncg     rms          rms(c)
DAV:   1    -0.117884435356E+04   -0.13646E-02   -0.30964E-03  1952   0.120E-01    0.201E-02
RMM:   2    -0.117884436709E+04   -0.13532E-04   -0.16254E-04  1744   0.189E-02    0.232E-02
RMM:   3    -0.117884436792E+04   -0.83369E-06   -0.22516E-05  1700   0.724E-03    0.232E-02
RMM:   4    -0.117884436777E+04    0.15048E-06   -0.41226E-06  1235   0.286E-03
  21 F= -.11860176E+04 E0= -.11860143E+04  d E =-.139670E-02  mag=     1.0009
       N       E                     dE             d eps       ncg     rms          rms(c)
DAV:   1    -0.117884804049E+04   -0.36726E-02   -0.27818E-02  1792   0.359E-01    0.801E-02
RMM:   2    -0.117884814612E+04   -0.10563E-03   -0.14659E-03  1745   0.566E-02    0.825E-02
RMM:   3    -0.117884815330E+04   -0.71743E-05   -0.20002E-04  1757   0.214E-02    0.825E-02
RMM:   4    -0.117884815173E+04    0.15623E-05   -0.39505E-05  1898   0.851E-03    0.804E-02
RMM:   5    -0.117884815378E+04   -0.20444E-05   -0.10009E-05  1583   0.435E-03    0.102E-01
RMM:   6    -0.117884814349E+04    0.10284E-04   -0.70038E-06  1498   0.360E-03    0.973E-02
RMM:   7    -0.117884813273E+04    0.10760E-04   -0.70175E-05  2179   0.984E-03    0.810E-02
RMM:   8    -0.117884811488E+04    0.17857E-04   -0.56048E-05  1980   0.805E-03    0.345E-02
RMM:   9    -0.117884812631E+04   -0.11431E-04   -0.10907E-05  1633   0.433E-03    0.506E-02
RMM:  10    -0.117884813295E+04   -0.66390E-05   -0.12555E-05  1637   0.429E-03    0.425E-02
RMM:  11    -0.117884813532E+04   -0.23720E-05   -0.22175E-05  1560   0.509E-03    0.309E-02
RMM:  12    -0.117884813679E+04   -0.14725E-05   -0.19421E-05  1669   0.494E-03    0.989E-03
RMM:  13    -0.117884814502E+04   -0.82334E-05   -0.23339E-06  1079   0.235E-03    0.684E-03
RMM:  14    -0.117884814524E+04   -0.21404E-06   -0.19407E-06  1062   0.173E-03
  22 F= -.11860215E+04 E0= -.11860181E+04  d E =-.522698E-02  mag=     1.0004
       N       E                     dE             d eps       ncg     rms          rms(c)
DAV:   1    -0.117885357373E+04   -0.54287E-02   -0.11136E-01  1760   0.719E-01    0.118E-01
RMM:   2    -0.117885407293E+04   -0.49920E-03   -0.58800E-03  1740   0.113E-01    0.142E-01
RMM:   3    -0.117885412315E+04   -0.50223E-04   -0.80203E-04  1751   0.432E-02    0.141E-01
RMM:   4    -0.117885412099E+04    0.21669E-05   -0.15729E-04  2032   0.173E-02    0.133E-01
RMM:   5    -0.117885411156E+04    0.94306E-05   -0.26690E-05  1738   0.680E-03    0.148E-01
RMM:   6    -0.117885404384E+04    0.67714E-04   -0.28894E-04  2102   0.192E-02    0.110E-01
RMM:   7    -0.117885415588E+04   -0.11204E-03   -0.37489E-04  2262   0.225E-02    0.133E-01
RMM:   8    -0.117885418658E+04   -0.30705E-04   -0.36894E-05  1671   0.891E-03    0.133E-01
RMM:   9    -0.117885422998E+04   -0.43400E-04   -0.62228E-05  1672   0.102E-02    0.145E-01
RMM:  10    -0.117885414320E+04    0.86788E-04   -0.63200E-05  1769   0.953E-03    0.123E-01
RMM:  11    -0.117885410425E+04    0.38943E-04   -0.68887E-05  1747   0.102E-02    0.102E-01
RMM:  12    -0.117885410839E+04   -0.41346E-05   -0.81229E-06  1468   0.432E-03    0.934E-02
RMM:  13    -0.117885410137E+04    0.70191E-05   -0.64613E-06  1295   0.315E-03    0.777E-02
RMM:  14    -0.117885408685E+04    0.14514E-04   -0.30400E-05  1932   0.638E-03    0.442E-02
RMM:  15    -0.117885408991E+04   -0.30605E-05   -0.36617E-06  1167   0.269E-03    0.356E-02
RMM:  16    -0.117885408762E+04    0.22945E-05   -0.58203E-06  1550   0.301E-03    0.236E-02
RMM:  17    -0.117885408841E+04   -0.79018E-06   -0.12850E-06  1035   0.171E-03
  23 F= -.11860275E+04 E0= -.11860242E+04  d E =-.112782E-01  mag=     1.0001
       N       E                     dE             d eps       ncg     rms          rms(c)
DAV:   1    -0.117885738245E+04   -0.32948E-02   -0.44570E-01  1760   0.144E+00    0.240E-01
RMM:   2    -0.117885947213E+04   -0.20897E-02   -0.23613E-02  1735   0.228E-01    0.291E-01
RMM:   3    -0.117885970902E+04   -0.23689E-03   -0.32130E-03  1739   0.866E-02    0.286E-01
RMM:   4    -0.117885970207E+04    0.69476E-05   -0.63138E-04  2047   0.347E-02    0.266E-01
RMM:   5    -0.117885964994E+04    0.52137E-04   -0.11140E-04  1751   0.141E-02    0.295E-01
RMM:   6    -0.117885947433E+04    0.17561E-03   -0.19323E-03  2361   0.488E-02    0.242E-01
RMM:   7    -0.117885979242E+04   -0.31809E-03   -0.61064E-04  1934   0.306E-02    0.268E-01
RMM:   8    -0.117885996003E+04   -0.16761E-03   -0.27056E-04  1660   0.228E-02    0.279E-01
RMM:   9    -0.117885991054E+04    0.49495E-04   -0.13926E-04  1692   0.153E-02    0.274E-01
RMM:  10    -0.117885961838E+04    0.29216E-03   -0.31673E-04  1960   0.205E-02    0.231E-01
RMM:  11    -0.117885955332E+04    0.65059E-04   -0.79678E-05  1708   0.128E-02    0.198E-01
RMM:  12    -0.117885954589E+04    0.74234E-05   -0.21138E-05  1680   0.644E-03    0.176E-01
RMM:  13    -0.117885951195E+04    0.33947E-04   -0.39522E-05  1781   0.748E-03    0.139E-01
RMM:  14    -0.117885946907E+04    0.42876E-04   -0.11338E-04  2102   0.125E-02    0.718E-02
RMM:  15    -0.117885948029E+04   -0.11223E-04   -0.11043E-05  1533   0.440E-03    0.555E-02
RMM:  16    -0.117885947786E+04    0.24353E-05   -0.82215E-06  1649   0.373E-03    0.402E-02
RMM:  17    -0.117885947799E+04   -0.13452E-06   -0.75947E-06  1591   0.337E-03
  24 F= -.11860331E+04 E0= -.11860298E+04  d E =-.168940E-01  mag=     1.0000
       N       E                     dE             d eps       ncg     rms          rms(c)
DAV:   1    -0.117885949199E+04   -0.14132E-04   -0.83460E-03  1984   0.196E-01    0.483E-02
RMM:   2    -0.117885953301E+04   -0.41019E-04   -0.44831E-04  1729   0.315E-02    0.646E-02
RMM:   3    -0.117885953051E+04    0.24983E-05   -0.62620E-05  1744   0.122E-02    0.613E-02
RMM:   4    -0.117885953025E+04    0.26023E-06   -0.11325E-05  1477   0.480E-03    0.610E-02
RMM:   5    -0.117885953282E+04   -0.25628E-05   -0.55934E-06  1401   0.297E-03    0.620E-02
RMM:   6    -0.117885953662E+04   -0.38042E-05   -0.89326E-06  1542   0.367E-03    0.596E-02
RMM:   7    -0.117885953972E+04   -0.31048E-05   -0.73591E-06  1405   0.350E-03    0.566E-02
RMM:   8    -0.117885953417E+04    0.55512E-05   -0.23978E-05  1692   0.532E-03    0.458E-02
RMM:   9    -0.117885953627E+04   -0.20982E-05   -0.84006E-06  1325   0.368E-03    0.349E-02
RMM:  10    -0.117885953738E+04   -0.11117E-05   -0.43510E-06  1212   0.242E-03    0.271E-02
RMM:  11    -0.117885953920E+04   -0.18158E-05   -0.25961E-06  1161   0.193E-03    0.151E-02
RMM:  12    -0.117885953932E+04   -0.12441E-06   -0.28145E-06  1161   0.197E-03
  25 F= -.11860332E+04 E0= -.11860299E+04  d E =-.169872E-01  mag=     1.0000
       N       E                     dE             d eps       ncg     rms          rms(c)
DAV:   1    -0.117886167517E+04   -0.21360E-02   -0.52887E-02  1696   0.472E-01    0.125E-01
RMM:   2    -0.117886197346E+04   -0.29829E-03   -0.33943E-03  1793   0.720E-02    0.149E-01
RMM:   3    -0.117886195415E+04    0.19312E-04   -0.46655E-04  1814   0.273E-02    0.159E-01
RMM:   4    -0.117886196354E+04   -0.93965E-05   -0.82372E-05  1875   0.104E-02    0.160E-01
RMM:   5    -0.117886194468E+04    0.18859E-04   -0.14547E-05  1344   0.445E-03    0.159E-01
RMM:   6    -0.117886194394E+04    0.74580E-06   -0.67439E-06  1234   0.287E-03
  26 F= -.11860358E+04 E0= -.11860326E+04  d E =-.252181E-02  mag=     1.0000
       N       E                     dE             d eps       ncg     rms          rms(c)
DAV:   1    -0.117886490492E+04   -0.29602E-02   -0.48773E-01  1728   0.143E+00    0.480E-01
RMM:   2    -0.117886773959E+04   -0.28347E-02   -0.31690E-02  1788   0.223E-01    0.512E-01
RMM:   3    -0.117886776437E+04   -0.24781E-04   -0.42702E-03  1803   0.831E-02    0.493E-01
RMM:   4    -0.117886732324E+04    0.44113E-03   -0.10430E-03  1756   0.392E-02    0.500E-01
RMM:   5    -0.117886793666E+04   -0.61342E-03   -0.29293E-04  1712   0.240E-02    0.487E-01
RMM:   6    -0.117886799731E+04   -0.60648E-04   -0.20148E-03  1768   0.476E-02    0.371E-01
RMM:   7    -0.117886775231E+04    0.24500E-03   -0.76338E-04  1768   0.340E-02    0.384E-01
RMM:   8    -0.117886726104E+04    0.49126E-03   -0.98321E-04  1979   0.364E-02    0.189E-01
RMM:   9    -0.117886736663E+04   -0.10559E-03   -0.27817E-04  1703   0.225E-02    0.185E-01
RMM:  10    -0.117886743269E+04   -0.66056E-04   -0.83416E-04  1844   0.344E-02    0.104E-01
RMM:  11    -0.117886752263E+04   -0.89937E-04   -0.25939E-04  1791   0.198E-02    0.433E-02
RMM:  12    -0.117886758044E+04   -0.57815E-04   -0.36119E-05  1987   0.831E-03    0.401E-02
RMM:  13    -0.117886760269E+04   -0.22249E-04   -0.90181E-06  1436   0.439E-03    0.326E-02
RMM:  14    -0.117886760800E+04   -0.53083E-05   -0.12439E-05  1416   0.427E-03    0.148E-02
RMM:  15    -0.117886761156E+04   -0.35627E-05   -0.61811E-06  1258   0.322E-03    0.166E-02
RMM:  16    -0.117886761337E+04   -0.18057E-05   -0.38041E-06  1276   0.252E-03    0.725E-03
RMM:  17    -0.117886761420E+04   -0.82707E-06   -0.12831E-06  1026   0.159E-03
  27 F= -.11860418E+04 E0= -.11860386E+04  d E =-.854767E-02  mag=     1.0000
       N       E                     dE             d eps       ncg     rms          rms(c)
DAV:   1    -0.117885804865E+04    0.95647E-02   -0.19073E+00  1792   0.284E+00    0.709E-01
RMM:   2    -0.117886990482E+04   -0.11856E-01   -0.12296E-01  1798   0.427E-01    0.829E-01
RMM:   3    -0.117887035765E+04   -0.45283E-03   -0.12400E-02  1805   0.153E-01    0.862E-01
RMM:   4    -0.117887025816E+04    0.99484E-04   -0.27113E-03  1976   0.608E-02    0.837E-01
RMM:   5    -0.117886922870E+04    0.10295E-02   -0.77889E-04  1728   0.333E-02    0.847E-01
RMM:   6    -0.117887036569E+04   -0.11370E-02   -0.30265E-04  1649   0.242E-02    0.833E-01
RMM:   7    -0.117886756113E+04    0.28046E-02   -0.19548E-02  2353   0.148E-01    0.408E-01
RMM:   8    -0.117886985807E+04   -0.22969E-02   -0.22472E-03  1812   0.636E-02    0.305E-01
RMM:   9    -0.117886984630E+04    0.11771E-04   -0.71144E-04  1697   0.346E-02    0.223E-01
RMM:  10    -0.117886995401E+04   -0.10771E-03   -0.55966E-04  1776   0.307E-02    0.180E-01
RMM:  11    -0.117886994908E+04    0.49233E-05   -0.64574E-04  1738   0.307E-02    0.779E-02
RMM:  12    -0.117887010946E+04   -0.16038E-03   -0.69453E-05  1695   0.139E-02    0.655E-02
RMM:  13    -0.117887012227E+04   -0.12806E-04   -0.25121E-05  1716   0.681E-03    0.563E-02
RMM:  14    -0.117887011652E+04    0.57461E-05   -0.26090E-05  1614   0.604E-03    0.272E-02
RMM:  15    -0.117887013354E+04   -0.17021E-04   -0.56290E-06  1233   0.360E-03    0.175E-02
RMM:  16    -0.117887013581E+04   -0.22694E-05   -0.30692E-06  1207   0.239E-03    0.118E-02
RMM:  17    -0.117887013507E+04    0.74011E-06   -0.19456E-06  1144   0.185E-03
  28 F= -.11860450E+04 E0= -.11860426E+04  d E =-.117984E-01  mag=     1.0000
       N       E                     dE             d eps       ncg     rms          rms(c)
DAV:   1    -0.117887193086E+04   -0.17950E-02   -0.11137E-01  1760   0.584E-01    0.149E-01
RMM:   2    -0.117887228582E+04   -0.35496E-03   -0.43059E-03  1797   0.863E-02    0.175E-01
RMM:   3    -0.117887232395E+04   -0.38132E-04   -0.95694E-04  1808   0.348E-02    0.190E-01
RMM:   4    -0.117887229958E+04    0.24370E-04   -0.12194E-04  1891   0.129E-02    0.180E-01
RMM:   5    -0.117887227336E+04    0.26222E-04   -0.22453E-05  1494   0.548E-03    0.185E-01
RMM:   6    -0.117887235811E+04   -0.84752E-04   -0.39482E-05  1601   0.782E-03    0.178E-01
RMM:   7    -0.117887217128E+04    0.18683E-03   -0.82348E-04  2204   0.302E-02    0.927E-02
RMM:   8    -0.117887234899E+04   -0.17770E-03   -0.83681E-05  1753   0.130E-02    0.622E-02
RMM:   9    -0.117887236031E+04   -0.11322E-04   -0.56126E-05  1732   0.960E-03    0.533E-02
RMM:  10    -0.117887237508E+04   -0.14774E-04   -0.56846E-05  1771   0.907E-03    0.273E-02
RMM:  11    -0.117887239763E+04   -0.22544E-04   -0.72054E-06  1404   0.393E-03    0.164E-02
RMM:  12    -0.117887240236E+04   -0.47333E-05   -0.29390E-06  1137   0.236E-03    0.114E-02
RMM:  13    -0.117887240376E+04   -0.13994E-05   -0.10751E-06  1038   0.149E-03    0.689E-03
RMM:  14    -0.117887240470E+04   -0.94316E-06   -0.40564E-07   991   0.934E-04
  29 F= -.11860475E+04 E0= -.11860452E+04  d E =-.244454E-02  mag=     1.0000
       N       E                     dE             d eps       ncg     rms          rms(c)
DAV:   1    -0.117887271150E+04   -0.30775E-03   -0.10030E+00  1664   0.175E+00    0.428E-01
RMM:   2    -0.117887614902E+04   -0.34375E-02   -0.38777E-02  1795   0.259E-01    0.492E-01
RMM:   3    -0.117887674294E+04   -0.59392E-03   -0.85618E-03  1812   0.103E-01    0.494E-01
RMM:   4    -0.117887661674E+04    0.12620E-03   -0.10103E-03  1966   0.370E-02    0.477E-01
RMM:   5    -0.117887653359E+04    0.83144E-04   -0.12809E-04  1872   0.135E-02    0.489E-01
RMM:   6    -0.117887627050E+04    0.26309E-03   -0.75446E-05  1706   0.105E-02    0.485E-01
RMM:   7    -0.117887716860E+04   -0.89810E-03   -0.14569E-03  1982   0.444E-02    0.393E-01
RMM:   8    -0.117887754285E+04   -0.37425E-03   -0.46170E-03  2403   0.770E-02    0.530E-01
RMM:   9    -0.117887759492E+04   -0.52067E-04   -0.11036E-03  1984   0.438E-02    0.373E-01
RMM:  10    -0.117887712610E+04    0.46881E-03   -0.75968E-04  2030   0.335E-02    0.276E-01
RMM:  11    -0.117887691675E+04    0.20935E-03   -0.43648E-04  1859   0.244E-02    0.161E-01
RMM:  12    -0.117887698021E+04   -0.63454E-04   -0.54022E-05  1711   0.116E-02    0.163E-01
RMM:  13    -0.117887696586E+04    0.14347E-04   -0.16649E-05  1795   0.591E-03    0.143E-01
RMM:  14    -0.117887693908E+04    0.26778E-04   -0.24346E-05  1703   0.605E-03    0.110E-01
RMM:  15    -0.117887693430E+04    0.47837E-05   -0.46782E-06  1267   0.316E-03    0.979E-02
RMM:  16    -0.117887692479E+04    0.95120E-05   -0.93405E-06  1535   0.376E-03    0.717E-02
RMM:  17    -0.117887691890E+04    0.58859E-05   -0.73467E-06  1444   0.347E-03    0.454E-02
RMM:  18    -0.117887691728E+04    0.16191E-05   -0.39811E-06  1266   0.258E-03    0.244E-02
RMM:  19    -0.117887691806E+04   -0.77785E-06   -0.36335E-06  1251   0.241E-03
  30 F= -.11860525E+04 E0= -.11860509E+04  d E =-.748798E-02  mag=     1.0000
       N       E                     dE             d eps       ncg     rms          rms(c)
DAV:   1    -0.117885867886E+04    0.18238E-01   -0.40143E+00  1696   0.352E+00    0.789E-01
RMM:   2    -0.117887272100E+04   -0.14042E-01   -0.15887E-01  1800   0.521E-01    0.850E-01
RMM:   3    -0.117887496860E+04   -0.22476E-02   -0.31339E-02  1813   0.202E-01    0.754E-01
RMM:   4    -0.117887540065E+04   -0.43204E-03   -0.41453E-03  1828   0.763E-02    0.714E-01
RMM:   5    -0.117887478425E+04    0.61639E-03   -0.69602E-03  1663   0.994E-02    0.475E-01
RMM:   6    -0.117887382798E+04    0.95627E-03   -0.15639E-03  1640   0.521E-02    0.251E-01
RMM:   7    -0.117887407796E+04   -0.24998E-03   -0.37606E-04  1946   0.247E-02    0.253E-01
RMM:   8    -0.117887461371E+04   -0.53574E-03   -0.45413E-04  1620   0.239E-02    0.200E-01
RMM:   9    -0.117887513380E+04   -0.52009E-03   -0.48220E-04  1719   0.245E-02    0.194E-01
RMM:  10    -0.117887527941E+04   -0.14561E-03   -0.22365E-04  1722   0.173E-02    0.104E-01
RMM:  11    -0.117887528690E+04   -0.74954E-05   -0.12131E-04  1731   0.122E-02    0.509E-02
RMM:  12    -0.117887531522E+04   -0.28324E-04   -0.27744E-05  1681   0.710E-03    0.296E-02
RMM:  13    -0.117887531180E+04    0.34269E-05   -0.29047E-05  1658   0.666E-03    0.144E-02
RMM:  14    -0.117887531816E+04   -0.63600E-05   -0.46980E-06  1347   0.318E-03    0.901E-03
RMM:  15    -0.117887531904E+04   -0.87938E-06   -0.14948E-06  1065   0.169E-03
  31 F= -.11860520E+04 E0= -.11860515E+04  d E =-.697392E-02  mag=     1.0000
       N       E                     dE             d eps       ncg     rms          rms(c)
DAV:   1    -0.117887292139E+04    0.23968E-02   -0.11870E+00  1664   0.192E+00    0.410E-01
RMM:   2    -0.117887719121E+04   -0.42698E-02   -0.49165E-02  1791   0.287E-01    0.499E-01
RMM:   3    -0.117887776152E+04   -0.57032E-03   -0.92365E-03  1806   0.111E-01    0.439E-01
RMM:   4    -0.117887788263E+04   -0.12110E-03   -0.12201E-03  1882   0.410E-02    0.436E-01
RMM:   5    -0.117887792395E+04   -0.41326E-04   -0.16278E-03  1646   0.479E-02    0.351E-01
RMM:   6    -0.117887760881E+04    0.31514E-03   -0.74944E-04  1624   0.332E-02    0.225E-01
RMM:   7    -0.117887744054E+04    0.16827E-03   -0.40578E-04  1722   0.232E-02    0.156E-01
RMM:   8    -0.117887770464E+04   -0.26409E-03   -0.20048E-04  1633   0.169E-02    0.158E-01
RMM:   9    -0.117887778839E+04   -0.83751E-04   -0.69160E-05  1598   0.972E-03    0.130E-01
RMM:  10    -0.117887789397E+04   -0.10558E-03   -0.42436E-04  1909   0.224E-02    0.655E-02
RMM:  11    -0.117887797771E+04   -0.83739E-04   -0.35150E-05  1641   0.838E-03    0.404E-02
RMM:  12    -0.117887799174E+04   -0.14035E-04   -0.25919E-05  1643   0.623E-03    0.183E-02
RMM:  13    -0.117887799367E+04   -0.19278E-05   -0.11761E-05  1607   0.459E-03    0.109E-02
RMM:  14    -0.117887799419E+04   -0.52166E-06   -0.70885E-06  1534   0.349E-03
  32 F= -.11860541E+04 E0= -.11860531E+04  d E =-.905453E-02  mag=     1.0000
       N       E                     dE             d eps       ncg     rms          rms(c)
DAV:   1    -0.117888004858E+04   -0.20549E-02   -0.56675E-02  1984   0.644E-01    0.959E-02
RMM:   2    -0.117888063787E+04   -0.58929E-03   -0.64603E-03  1772   0.936E-02    0.100E-01
RMM:   3    -0.117888066464E+04   -0.26771E-04   -0.59073E-04  1798   0.332E-02    0.817E-02
RMM:   4    -0.117888068035E+04   -0.15710E-04   -0.12178E-04  1794   0.137E-02    0.904E-02
RMM:   5    -0.117888067553E+04    0.48166E-05   -0.72566E-05  1660   0.106E-02    0.717E-02
RMM:   6    -0.117888065820E+04    0.17337E-04   -0.62798E-05  1638   0.998E-03    0.465E-02
RMM:   7    -0.117888065514E+04    0.30585E-05   -0.11739E-05  1587   0.468E-03    0.326E-02
RMM:   8    -0.117888066616E+04   -0.11026E-04   -0.37014E-06  1143   0.264E-03    0.311E-02
RMM:   9    -0.117888067314E+04   -0.69786E-05   -0.17256E-05  1396   0.426E-03    0.223E-02
RMM:  10    -0.117888068289E+04   -0.97495E-05   -0.14534E-05  1618   0.438E-03    0.937E-03
RMM:  11    -0.117888068774E+04   -0.48514E-05   -0.22191E-06  1112   0.209E-03    0.514E-03
RMM:  12    -0.117888068836E+04   -0.61132E-06   -0.96835E-07   994   0.133E-03
  33 F= -.11860567E+04 E0= -.11860557E+04  d E =-.265206E-02  mag=     1.0000
       N       E                     dE             d eps       ncg     rms          rms(c)
DAV:   1    -0.117887965017E+04    0.10376E-02   -0.35011E-01  1952   0.160E+00    0.235E-01
RMM:   2    -0.117888332846E+04   -0.36783E-02   -0.39659E-02  1768   0.232E-01    0.247E-01
RMM:   3    -0.117888354020E+04   -0.21174E-03   -0.36146E-03  1794   0.820E-02    0.202E-01
RMM:   4    -0.117888361817E+04   -0.77972E-04   -0.77570E-04  1820   0.338E-02    0.227E-01
RMM:   5    -0.117888356506E+04    0.53110E-04   -0.37846E-04  1695   0.245E-02    0.184E-01
RMM:   6    -0.117888344677E+04    0.11829E-03   -0.38514E-04  1675   0.244E-02    0.123E-01
RMM:   7    -0.117888339311E+04    0.53657E-04   -0.89587E-05  1755   0.124E-02    0.827E-02
RMM:   8    -0.117888345899E+04   -0.65879E-04   -0.27229E-05  1657   0.693E-03    0.798E-02
RMM:   9    -0.117888351226E+04   -0.53274E-04   -0.10807E-04  1703   0.107E-02    0.568E-02
RMM:  10    -0.117888355852E+04   -0.46257E-04   -0.92727E-05  1775   0.111E-02    0.241E-02
RMM:  11    -0.117888357655E+04   -0.18029E-04   -0.15304E-05  1625   0.532E-03    0.130E-02
RMM:  12    -0.117888358003E+04   -0.34802E-05   -0.70889E-06  1468   0.334E-03    0.939E-03
RMM:  13    -0.117888358125E+04   -0.12175E-05   -0.46076E-06  1377   0.268E-03    0.484E-03
RMM:  14    -0.117888358142E+04   -0.16966E-06   -0.26394E-06  1175   0.209E-03
  34 F= -.11860595E+04 E0= -.11860585E+04  d E =-.544660E-02  mag=     1.0000
       N       E                     dE             d eps       ncg     rms          rms(c)
DAV:   1    -0.117888436559E+04   -0.78434E-03   -0.10007E-01  1952   0.836E-01    0.121E-01
RMM:   2    -0.117888546754E+04   -0.11020E-02   -0.12134E-02  1803   0.122E-01    0.116E-01
RMM:   3    -0.117888552888E+04   -0.61340E-04   -0.10774E-03  1823   0.422E-02    0.885E-02
RMM:   4    -0.117888555705E+04   -0.28167E-04   -0.22850E-04  1811   0.172E-02    0.913E-02
RMM:   5    -0.117888555666E+04    0.39417E-06   -0.11013E-04  1650   0.137E-02    0.545E-02
RMM:   6    -0.117888555611E+04    0.54477E-06   -0.56476E-05  1617   0.101E-02    0.303E-02
RMM:   7    -0.117888556802E+04   -0.11911E-04   -0.88959E-06  1508   0.427E-03    0.317E-02
RMM:   8    -0.117888556957E+04   -0.15511E-05   -0.15693E-06  1080   0.196E-03    0.321E-02
RMM:   9    -0.117888557414E+04   -0.45645E-05   -0.29976E-06  1120   0.197E-03    0.278E-02
RMM:  10    -0.117888558229E+04   -0.81526E-05   -0.23569E-05  1625   0.521E-03    0.110E-02
RMM:  11    -0.117888559012E+04   -0.78339E-05   -0.29793E-06  1178   0.228E-03    0.617E-03
RMM:  12    -0.117888559135E+04   -0.12311E-05   -0.79629E-07   994   0.124E-03    0.463E-03
RMM:  13    -0.117888559163E+04   -0.27324E-06   -0.10086E-06   988   0.131E-03
  35 F= -.11860614E+04 E0= -.11860604E+04  d E =-.188674E-02  mag=     1.0000
       N       E                     dE             d eps       ncg     rms          rms(c)
DAV:   1    -0.117888367512E+04    0.19162E-02   -0.27076E-01  1952   0.138E+00    0.198E-01
RMM:   2    -0.117888668115E+04   -0.30060E-02   -0.32831E-02  1804   0.200E-01    0.187E-01
RMM:   3    -0.117888686719E+04   -0.18605E-03   -0.29187E-03  1821   0.695E-02    0.145E-01
RMM:   4    -0.117888692824E+04   -0.61043E-04   -0.62519E-04  1812   0.284E-02    0.150E-01
RMM:   5    -0.117888691939E+04    0.88410E-05   -0.29051E-04  1654   0.222E-02    0.913E-02
RMM:   6    -0.117888691063E+04    0.87686E-05   -0.15472E-04  1619   0.167E-02    0.503E-02
RMM:   7    -0.117888693679E+04   -0.26166E-04   -0.23877E-05  1768   0.705E-03    0.521E-02
RMM:   8    -0.117888694263E+04   -0.58382E-05   -0.44826E-06  1224   0.333E-03    0.528E-02
RMM:   9    -0.117888695447E+04   -0.11839E-04   -0.72136E-06  1182   0.293E-03    0.460E-02
RMM:  10    -0.117888697635E+04   -0.21881E-04   -0.69629E-05  1866   0.899E-03    0.179E-02
RMM:  11    -0.117888699488E+04   -0.18525E-04   -0.76820E-06  1466   0.374E-03    0.101E-02
RMM:  12    -0.117888699686E+04   -0.19847E-05   -0.21580E-06  1102   0.198E-03    0.767E-03
RMM:  13    -0.117888699747E+04   -0.60659E-06   -0.30442E-06  1193   0.220E-03
  36 F= -.11860626E+04 E0= -.11860617E+04  d E =-.309303E-02  mag=     1.0000
       N       E                     dE             d eps       ncg     rms          rms(c)
DAV:   1    -0.117888799482E+04   -0.99796E-03   -0.12930E-01  1696   0.672E-01    0.107E-01
RMM:   2    -0.117888842285E+04   -0.42803E-03   -0.57049E-03  1786   0.985E-02    0.903E-02
RMM:   3    -0.117888849295E+04   -0.70105E-04   -0.10173E-03  1797   0.379E-02    0.821E-02
RMM:   4    -0.117888850167E+04   -0.87224E-05   -0.15599E-04  1877   0.154E-02    0.639E-02
RMM:   5    -0.117888853360E+04   -0.31923E-04   -0.84447E-05  1588   0.123E-02    0.375E-02
RMM:   6    -0.117888855284E+04   -0.19239E-04   -0.37486E-05  1615   0.849E-03    0.309E-02
RMM:   7    -0.117888855368E+04   -0.84526E-06   -0.51890E-06  1333   0.341E-03
  37 F= -.11860641E+04 E0= -.11860632E+04  d E =-.143605E-02  mag=     1.0000
       N       E                     dE             d eps       ncg     rms          rms(c)
DAV:   1    -0.117888760143E+04    0.95140E-03   -0.54204E-01  1760   0.138E+00    0.228E-01
RMM:   2    -0.117888935527E+04   -0.17538E-02   -0.23744E-02  1781   0.200E-01    0.194E-01
RMM:   3    -0.117888960093E+04   -0.24567E-03   -0.42330E-03  1794   0.771E-02    0.179E-01
RMM:   4    -0.117888963733E+04   -0.36394E-04   -0.65108E-04  1866   0.313E-02    0.140E-01
RMM:   5    -0.117888983528E+04   -0.19795E-03   -0.40748E-04  1587   0.272E-02    0.776E-02
RMM:   6    -0.117888993533E+04   -0.10005E-03   -0.18269E-04  1606   0.189E-02    0.522E-02
RMM:   7    -0.117888994826E+04   -0.12928E-04   -0.28711E-05  1673   0.805E-03    0.438E-02
RMM:   8    -0.117888994291E+04    0.53501E-05   -0.29417E-05  1586   0.700E-03    0.262E-02
RMM:   9    -0.117888994327E+04   -0.36534E-06   -0.93591E-06  1557   0.404E-03
  38 F= -.11860652E+04 E0= -.11860645E+04  d E =-.258550E-02  mag=     1.0000
       N       E                     dE             d eps       ncg     rms          rms(c)
DAV:   1    -0.117889092965E+04   -0.98675E-03   -0.15870E-01  1536   0.584E-01    0.112E-01
RMM:   2    -0.117889108410E+04   -0.15445E-03   -0.34376E-03  1737   0.815E-02    0.995E-02
RMM:   3    -0.117889110275E+04   -0.18645E-04   -0.52550E-04  1750   0.317E-02    0.878E-02
RMM:   4    -0.117889114329E+04   -0.40543E-04   -0.10504E-04  1841   0.138E-02    0.749E-02
RMM:   5    -0.117889122080E+04   -0.77506E-04   -0.93439E-05  1609   0.132E-02    0.333E-02
RMM:   6    -0.117889124455E+04   -0.23756E-04   -0.29572E-05  1609   0.780E-03    0.195E-02
RMM:   7    -0.117889124683E+04   -0.22772E-05   -0.57471E-06  1394   0.347E-03    0.176E-02
RMM:   8    -0.117889124823E+04   -0.14039E-05   -0.16573E-06  1086   0.186E-03    0.178E-02
RMM:   9    -0.117889124663E+04    0.16070E-05   -0.55300E-07  1024   0.120E-03    0.182E-02
RMM:  10    -0.117889124887E+04   -0.22446E-05   -0.13335E-06  1078   0.145E-03    0.148E-02
RMM:  11    -0.117889124829E+04    0.58289E-06   -0.36240E-06  1152   0.201E-03
  39 F= -.11860665E+04 E0= -.11860658E+04  d E =-.127372E-02  mag=     1.0000
       N       E                     dE             d eps       ncg     rms          rms(c)
DAV:   1    -0.117889152931E+04   -0.28044E-03   -0.39934E-01  1536   0.926E-01    0.179E-01
RMM:   2    -0.117889199297E+04   -0.46366E-03   -0.86722E-03  1738   0.129E-01    0.163E-01
RMM:   3    -0.117889203461E+04   -0.41637E-04   -0.13074E-03  1751   0.503E-02    0.144E-01
RMM:   4    -0.117889212405E+04   -0.89445E-04   -0.27471E-04  1850   0.216E-02    0.146E-01
RMM:   5    -0.117889220521E+04   -0.81159E-04   -0.14128E-04  1635   0.155E-02    0.103E-01
RMM:   6    -0.117889227392E+04   -0.68712E-04   -0.14654E-04  1634   0.156E-02    0.694E-02
RMM:   7    -0.117889226872E+04    0.52061E-05   -0.38402E-05  1632   0.798E-03    0.484E-02
RMM:   8    -0.117889229980E+04   -0.31085E-04   -0.13158E-05  1485   0.476E-03    0.460E-02
RMM:   9    -0.117889230942E+04   -0.96153E-05   -0.20227E-05  1438   0.479E-03    0.331E-02
RMM:  10    -0.117889232338E+04   -0.13959E-04   -0.23614E-05  1557   0.532E-03    0.175E-02
RMM:  11    -0.117889233338E+04   -0.10001E-04   -0.59468E-06  1275   0.302E-03    0.814E-03
RMM:  12    -0.117889233476E+04   -0.13780E-05   -0.23065E-06  1128   0.197E-03    0.578E-03
RMM:  13    -0.117889233528E+04   -0.52287E-06   -0.18389E-06  1104   0.181E-03
  40 F= -.11860675E+04 E0= -.11860670E+04  d E =-.231338E-02  mag=     1.0000
       N       E                     dE             d eps       ncg     rms          rms(c)
DAV:   1    -0.117889232935E+04    0.54022E-05   -0.50718E-02  1536   0.330E-01    0.638E-02
RMM:   2    -0.117889238479E+04   -0.55436E-04   -0.11448E-03  1736   0.464E-02    0.575E-02
RMM:   3    -0.117889239070E+04   -0.59127E-05   -0.17061E-04  1743   0.181E-02    0.508E-02
RMM:   4    -0.117889240562E+04   -0.14921E-04   -0.35541E-05  1814   0.780E-03    0.509E-02
RMM:   5    -0.117889241910E+04   -0.13479E-04   -0.21352E-05  1579   0.614E-03    0.341E-02
RMM:   6    -0.117889242667E+04   -0.75644E-05   -0.17461E-05  1579   0.552E-03    0.229E-02
RMM:   7    -0.117889242649E+04    0.17683E-06   -0.43475E-06  1158   0.272E-03
  41 F= -.11860676E+04 E0= -.11860671E+04  d E =-.238838E-02  mag=     1.0000
       N       E                     dE             d eps       ncg     rms          rms(c)
DAV:   1    -0.117889352633E+04   -0.10997E-02   -0.29232E-01  1536   0.758E-01    0.155E-01
RMM:   2    -0.117889375569E+04   -0.22936E-03   -0.55552E-03  1737   0.106E-01    0.155E-01
RMM:   3    -0.117889372671E+04    0.28979E-04   -0.82740E-04  1748   0.420E-02    0.132E-01
RMM:   4    -0.117889378757E+04   -0.60861E-04   -0.17347E-04  1850   0.176E-02    0.117E-01
RMM:   5    -0.117889397269E+04   -0.18511E-03   -0.40013E-04  1651   0.251E-02    0.542E-02
RMM:   6    -0.117889398028E+04   -0.75957E-05   -0.33288E-05  1668   0.943E-03    0.339E-02
RMM:   7    -0.117889399026E+04   -0.99751E-05   -0.99863E-06  1565   0.450E-03    0.373E-02
RMM:   8    -0.117889399898E+04   -0.87219E-05   -0.40959E-06  1190   0.277E-03    0.334E-02
RMM:   9    -0.117889400297E+04   -0.39908E-05   -0.57898E-06  1159   0.260E-03    0.280E-02
RMM:  10    -0.117889400880E+04   -0.58300E-05   -0.18402E-05  1569   0.455E-03    0.107E-02
RMM:  11    -0.117889401461E+04   -0.58094E-05   -0.22083E-06  1081   0.208E-03    0.619E-03
RMM:  12    -0.117889401551E+04   -0.90171E-06   -0.28231E-06  1173   0.203E-03
  42 F= -.11860692E+04 E0= -.11860688E+04  d E =-.157104E-02  mag=     1.0000
       N       E                     dE             d eps       ncg     rms          rms(c)
DAV:   1    -0.117889391522E+04    0.99389E-04   -0.57863E-01  1536   0.107E+00    0.216E-01
RMM:   2    -0.117889445518E+04   -0.53996E-03   -0.10932E-02  1736   0.149E-01    0.217E-01
RMM:   3    -0.117889439338E+04    0.61796E-04   -0.16253E-03  1748   0.589E-02    0.189E-01
RMM:   4    -0.117889448826E+04   -0.94879E-04   -0.34166E-04  1860   0.244E-02    0.173E-01
RMM:   5    -0.117889475591E+04   -0.26765E-03   -0.73860E-04  1655   0.335E-02    0.946E-02
RMM:   6    -0.117889477526E+04   -0.19348E-04   -0.79693E-05  1720   0.138E-02    0.559E-02
RMM:   7    -0.117889480273E+04   -0.27480E-04   -0.20870E-05  1665   0.645E-03    0.566E-02
RMM:   8    -0.117889483364E+04   -0.30903E-04   -0.14160E-05  1539   0.485E-03    0.474E-02
RMM:   9    -0.117889484621E+04   -0.12575E-04   -0.22380E-05  1420   0.502E-03    0.355E-02
RMM:  10    -0.117889486722E+04   -0.21011E-04   -0.28449E-05  1634   0.580E-03    0.147E-02
RMM:  11    -0.117889487558E+04   -0.83583E-05   -0.38779E-06  1226   0.278E-03    0.809E-03
RMM:  12    -0.117889487685E+04   -0.12656E-05   -0.50535E-06  1402   0.274E-03    0.508E-03
RMM:  13    -0.117889487690E+04   -0.53456E-07   -0.11732E-06  1021   0.156E-03
  43 F= -.11860700E+04 E0= -.11860698E+04  d E =-.240934E-02  mag=     1.0000
       N       E                     dE             d eps       ncg     rms          rms(c)
DAV:   1    -0.117889567847E+04   -0.80163E-03   -0.43600E-01  1536   0.919E-01    0.184E-01
RMM:   2    -0.117889604926E+04   -0.37078E-03   -0.85033E-03  1725   0.125E-01    0.175E-01
RMM:   3    -0.117889601904E+04    0.30214E-04   -0.13904E-03  1762   0.510E-02    0.156E-01
RMM:   4    -0.117889608837E+04   -0.69329E-04   -0.26352E-04  1845   0.212E-02    0.135E-01
RMM:   5    -0.117889632441E+04   -0.23604E-03   -0.55240E-04  1635   0.291E-02    0.636E-02
RMM:   6    -0.117889634214E+04   -0.17733E-04   -0.49075E-05  1713   0.113E-02    0.409E-02
RMM:   7    -0.117889635881E+04   -0.16668E-04   -0.15087E-05  1654   0.552E-03    0.414E-02
RMM:   8    -0.117889637284E+04   -0.14029E-04   -0.66106E-06  1302   0.348E-03    0.358E-02
RMM:   9    -0.117889637753E+04   -0.46896E-05   -0.10259E-05  1255   0.345E-03    0.277E-02
RMM:  10    -0.117889639004E+04   -0.12509E-04   -0.20796E-05  1609   0.489E-03    0.100E-02
RMM:  11    -0.117889639596E+04   -0.59167E-05   -0.14763E-06  1054   0.193E-03    0.734E-03
RMM:  12    -0.117889639634E+04   -0.38304E-06   -0.28181E-06  1200   0.208E-03
  44 F= -.11860715E+04 E0= -.11860713E+04  d E =-.150173E-02  mag=     1.0000
