       N       E                     dE             d eps       ncg     rms          rms(c)
DAV:   1     0.483845052217E+04    0.48385E+04   -0.17278E+05  1872   0.907E+02
DAV:   2    -0.821764606554E+02   -0.49206E+04   -0.44931E+04  2556   0.206E+02
DAV:   3    -0.119038782997E+04   -0.11082E+04   -0.11024E+04  2124   0.108E+02
DAV:   4    -0.123472248902E+04   -0.44335E+02   -0.44121E+02  2052   0.283E+01
DAV:   5    -0.123586754777E+04   -0.11451E+01   -0.11428E+01  2376   0.421E+00    0.658E+01
RMM:   6    -0.122018440774E+04    0.15683E+02   -0.21216E+01  1584   0.453E+00    0.504E+01
RMM:   7    -0.120393394513E+04    0.16250E+02   -0.99725E+00  1584   0.361E+00    0.406E+01
RMM:   8    -0.117626462315E+04    0.27669E+02   -0.37822E+01  1584   0.699E+00    0.257E+01
RMM:   9    -0.116879272415E+04    0.74719E+01   -0.17329E+01  1584   0.476E+00    0.171E+01
RMM:  10    -0.116996457005E+04   -0.11718E+01   -0.13858E+01  1584   0.419E+00    0.847E+00
RMM:  11    -0.116969199299E+04    0.27258E+00   -0.11975E+00  1619   0.117E+00    0.584E+00
RMM:  12    -0.116911863170E+04    0.57336E+00   -0.13780E+00  1584   0.129E+00    0.232E+00
RMM:  13    -0.116888223237E+04    0.23640E+00   -0.20431E-01  1594   0.437E-01    0.119E+00
RMM:  14    -0.116886088523E+04    0.21347E-01   -0.92941E-02  1584   0.317E-01    0.504E-01
RMM:  15    -0.116886157560E+04   -0.69036E-03   -0.13322E-02  1597   0.139E-01    0.286E-01
RMM:  16    -0.116886072442E+04    0.85117E-03   -0.27537E-03  1588   0.591E-02    0.198E-01
RMM:  17    -0.116886083924E+04   -0.11482E-03   -0.95375E-04  1488   0.349E-02    0.997E-02
RMM:  18    -0.116886096226E+04   -0.12302E-03   -0.18253E-04  1105   0.171E-02    0.615E-02
RMM:  19    -0.116886099977E+04   -0.37507E-04   -0.14862E-04  1089   0.151E-02
   1 F= -.11759884E+04 E0= -.11759884E+04  d E =-.117599E+04  mag=    -0.0017
       N       E                     dE             d eps       ncg     rms          rms(c)
DAV:   1    -0.116885936433E+04    0.15979E-02   -0.78828E-01  1656   0.152E+00    0.344E-01
RMM:   2    -0.116886228584E+04   -0.29215E-02   -0.34069E-02  1584   0.237E-01    0.339E-01
RMM:   3    -0.116886190516E+04    0.38068E-03   -0.15826E-03  1511   0.435E-02    0.318E-01
RMM:   4    -0.116886110633E+04    0.79883E-03   -0.22284E-03  1584   0.523E-02    0.148E-01
RMM:   5    -0.116886121174E+04   -0.10541E-03   -0.10214E-03  1584   0.360E-02    0.657E-02
RMM:   6    -0.116886108380E+04    0.12794E-03   -0.10376E-04  1036   0.114E-02    0.462E-02
RMM:   7    -0.116886107849E+04    0.53067E-05   -0.18571E-04  1087   0.141E-02
   2 F= -.11759885E+04 E0= -.11759885E+04  d E =-.118066E-03  mag=     0.0001
       N       E                     dE             d eps       ncg     rms          rms(c)
DAV:   1    -0.116886207568E+04   -0.99188E-03   -0.20069E-01  1620   0.766E-01    0.174E-01
RMM:   2    -0.116886272560E+04   -0.64992E-03   -0.82397E-03  1584   0.118E-01    0.173E-01
RMM:   3    -0.116886260574E+04    0.11986E-03   -0.31169E-04  1136   0.205E-02    0.163E-01
RMM:   4    -0.116886233469E+04    0.27106E-03   -0.74777E-04  1553   0.308E-02    0.704E-02
RMM:   5    -0.116886235443E+04   -0.19740E-04   -0.23826E-04  1119   0.188E-02
   3 F= -.11759898E+04 E0= -.11759898E+04  d E =-.137153E-02  mag=    -0.0000
       N       E                     dE             d eps       ncg     rms          rms(c)
DAV:   1    -0.116886232537E+04    0.93188E-05   -0.47655E-01  1656   0.119E+00    0.235E-01
RMM:   2    -0.116886330890E+04   -0.98354E-03   -0.14537E-02  1584   0.170E-01    0.219E-01
RMM:   3    -0.116886288861E+04    0.42029E-03   -0.65060E-04  1302   0.327E-02    0.191E-01
RMM:   4    -0.116886226114E+04    0.62747E-03   -0.25525E-03  1584   0.558E-02    0.632E-02
RMM:   5    -0.116886228015E+04   -0.19009E-04   -0.17462E-04  1076   0.172E-02
   4 F= -.11759898E+04 E0= -.11759898E+04  d E =-.355170E-04  mag=    -0.0000
       N       E                     dE             d eps       ncg     rms          rms(c)
DAV:   1    -0.116886309910E+04   -0.83797E-03   -0.11806E-01  1728   0.592E-01    0.109E-01
RMM:   2    -0.116886331289E+04   -0.21378E-03   -0.34867E-03  1584   0.825E-02    0.101E-01
RMM:   3    -0.116886318881E+04    0.12407E-03   -0.14236E-04  1057   0.162E-02    0.874E-02
RMM:   4    -0.116886301352E+04    0.17529E-03   -0.77495E-04  1562   0.311E-02    0.275E-02
RMM:   5    -0.116886301717E+04   -0.36517E-05   -0.31808E-05   995   0.799E-03
   5 F= -.11759905E+04 E0= -.11759905E+04  d E =-.717275E-03  mag=    -0.0000
