       N       E                     dE             d eps       ncg     rms          rms(c)
DAV:   1     0.503480320080E+04    0.50348E+04   -0.17260E+05  1800   0.917E+02
DAV:   2    -0.384447899106E+02   -0.50732E+04   -0.46476E+04  2556   0.212E+02
DAV:   3    -0.119408455535E+04   -0.11556E+04   -0.11513E+04  2160   0.111E+02
DAV:   4    -0.124127025429E+04   -0.47186E+02   -0.46940E+02  2016   0.293E+01
DAV:   5    -0.124269433973E+04   -0.14241E+01   -0.14209E+01  2448   0.444E+00    0.713E+01
RMM:   6    -0.122961310801E+04    0.13081E+02   -0.79710E+00  1585   0.319E+00    0.608E+01
RMM:   7    -0.118607530236E+04    0.43538E+02   -0.76411E+01  1584   0.975E+00    0.403E+01
RMM:   8    -0.117751008037E+04    0.85652E+01   -0.55887E+01  1587   0.839E+00    0.190E+01
RMM:   9    -0.117946656364E+04   -0.19565E+01   -0.87602E+00  1600   0.343E+00    0.110E+01
RMM:  10    -0.117728951129E+04    0.21771E+01   -0.43170E+00  1584   0.229E+00    0.431E+00
RMM:  11    -0.117709259794E+04    0.19691E+00   -0.60536E-01  1599   0.863E-01    0.209E+00
RMM:  12    -0.117705212860E+04    0.40469E-01   -0.15562E-01  1594   0.420E-01    0.932E-01
RMM:  13    -0.117703850780E+04    0.13621E-01   -0.74047E-02  1592   0.295E-01    0.319E-01
RMM:  14    -0.117703743071E+04    0.10771E-02   -0.11081E-02  1627   0.116E-01    0.268E-01
RMM:  15    -0.117703693497E+04    0.49574E-03   -0.13976E-03  1684   0.402E-02    0.206E-01
RMM:  16    -0.117703711862E+04   -0.18365E-03   -0.20091E-03  1582   0.508E-02    0.121E-01
RMM:  17    -0.117703701035E+04    0.10827E-03   -0.11463E-03  1555   0.362E-02    0.577E-02
RMM:  18    -0.117703706209E+04   -0.51739E-04   -0.42326E-04  1308   0.223E-02
   1 F= -.11841701E+04 E0= -.11841648E+04  d E =-.118417E+04  mag=    -0.8360
       N       E                     dE             d eps       ncg     rms          rms(c)
DAV:   1    -0.117703567307E+04    0.13373E-02   -0.94089E-01  1584   0.129E+00    0.992E-01
RMM:   2    -0.117703775022E+04   -0.20771E-02   -0.29220E-02  1599   0.186E-01    0.996E-01
RMM:   3    -0.117703737837E+04    0.37185E-03   -0.13231E-03  1406   0.387E-02    0.965E-01
RMM:   4    -0.117703676418E+04    0.61419E-03   -0.69201E-03  1584   0.779E-02    0.212E-01
RMM:   5    -0.117703691005E+04   -0.14587E-03   -0.52914E-04  1235   0.236E-02    0.191E-01
RMM:   6    -0.117703676221E+04    0.14784E-03   -0.34879E-03  1558   0.491E-02    0.152E-01
RMM:   7    -0.117703657178E+04    0.19043E-03   -0.42323E-04  1164   0.194E-02    0.288E-02
RMM:   8    -0.117703655907E+04    0.12713E-04   -0.65925E-05  1017   0.822E-03
   2 F= -.11841702E+04 E0= -.11841650E+04  d E =-.922850E-04  mag=    -0.8415
       N       E                     dE             d eps       ncg     rms          rms(c)
DAV:   1    -0.117703808492E+04   -0.15131E-02   -0.23501E-01  1656   0.650E-01    0.500E-01
RMM:   2    -0.117703857447E+04   -0.48955E-03   -0.73876E-03  1599   0.924E-02    0.504E-01
RMM:   3    -0.117703847697E+04    0.97497E-04   -0.27821E-04  1103   0.183E-02
   3 F= -.11841718E+04 E0= -.11841666E+04  d E =-.171230E-02  mag=    -0.8409
       N       E                     dE             d eps       ncg     rms          rms(c)
DAV:   1    -0.117703559504E+04    0.29794E-02   -0.39847E-01  1764   0.867E-01    0.589E-01
RMM:   2    -0.117703602747E+04   -0.43243E-03   -0.11300E-02  1595   0.133E-01    0.540E-01
RMM:   3    -0.117703515365E+04    0.87383E-03   -0.35450E-03  1595   0.487E-02    0.280E-01
RMM:   4    -0.117703522932E+04   -0.75675E-04   -0.82274E-04  1196   0.252E-02
   4 F= -.11841687E+04 E0= -.11841634E+04  d E =0.309448E-02  mag=    -0.8377
       N       E                     dE             d eps       ncg     rms          rms(c)
DAV:   1    -0.117703892249E+04   -0.37688E-02   -0.19568E-01  1800   0.599E-01    0.254E-01
RMM:   2    -0.117703925156E+04   -0.32907E-03   -0.60268E-03  1585   0.947E-02    0.243E-01
RMM:   3    -0.117703903089E+04    0.22067E-03   -0.23903E-04  1061   0.187E-02    0.205E-01
RMM:   4    -0.117703879856E+04    0.23233E-03   -0.12101E-03  1540   0.338E-02    0.768E-02
RMM:   5    -0.117703878439E+04    0.14170E-04   -0.99969E-05  1016   0.117E-02
   5 F= -.11841722E+04 E0= -.11841669E+04  d E =-.356492E-03  mag=    -0.8396
