       N       E                     dE             d eps       ncg     rms          rms(c)
DAV:   1     0.493581807843E+04    0.49358E+04   -0.16898E+05  1800   0.904E+02
DAV:   2    -0.486320246688E+02   -0.49845E+04   -0.45529E+04  2556   0.210E+02
DAV:   3    -0.117318215658E+04   -0.11246E+04   -0.11194E+04  2160   0.110E+02
DAV:   4    -0.121849869267E+04   -0.45317E+02   -0.45121E+02  2052   0.288E+01
DAV:   5    -0.121965367104E+04   -0.11550E+01   -0.11528E+01  2376   0.425E+00    0.598E+01
RMM:   6    -0.120800578832E+04    0.11648E+02   -0.65744E+00  1584   0.299E+00    0.488E+01
RMM:   7    -0.117303315184E+04    0.34973E+02   -0.44670E+01  1584   0.772E+00    0.298E+01
RMM:   8    -0.116038242647E+04    0.12651E+02   -0.21069E+01  1584   0.526E+00    0.210E+01
RMM:   9    -0.115911705361E+04    0.12654E+01   -0.28059E+01  1584   0.600E+00    0.900E+00
RMM:  10    -0.115866514526E+04    0.45191E+00   -0.86934E-01  1618   0.125E+00    0.449E+00
RMM:  11    -0.115828343166E+04    0.38171E+00   -0.80828E-01  1584   0.977E-01    0.223E+00
RMM:  12    -0.115825462626E+04    0.28805E-01   -0.18479E-01  1584   0.488E-01    0.758E-01
RMM:  13    -0.115825451282E+04    0.11345E-03   -0.11086E-01  1584   0.382E-01    0.516E-01
RMM:  14    -0.115824541071E+04    0.91021E-02   -0.18574E-02  1584   0.154E-01    0.183E-01
RMM:  15    -0.115824493921E+04    0.47150E-03   -0.31107E-03  1591   0.580E-02    0.115E-01
RMM:  16    -0.115824531934E+04   -0.38013E-03   -0.85709E-04  1595   0.351E-02    0.119E-01
RMM:  17    -0.115824530544E+04    0.13904E-04   -0.16302E-04  1100   0.156E-02
   1 F= -.11653552E+04 E0= -.11653552E+04  d E =-.116536E+04  mag=     0.9993
       N       E                     dE             d eps       ncg     rms          rms(c)
DAV:   1    -0.115824661763E+04   -0.12983E-02   -0.30351E-01  1692   0.850E-01    0.187E-01
RMM:   2    -0.115824677785E+04   -0.16021E-03   -0.74644E-03  1584   0.118E-01    0.172E-01
RMM:   3    -0.115824615107E+04    0.62678E-03   -0.60821E-04  1505   0.310E-02    0.140E-01
RMM:   4    -0.115824532227E+04    0.82880E-03   -0.34221E-03  1584   0.634E-02    0.469E-02
RMM:   5    -0.115824529367E+04    0.28599E-04   -0.59516E-05  1020   0.116E-02
   2 F= -.11653554E+04 E0= -.11653554E+04  d E =-.248475E-03  mag=     0.9998
       N       E                     dE             d eps       ncg     rms          rms(c)
DAV:   1    -0.115824612072E+04   -0.79845E-03   -0.53262E-02  1728   0.354E-01    0.705E-02
RMM:   2    -0.115824610766E+04    0.13060E-04   -0.93155E-04  1584   0.450E-02
   3 F= -.11653561E+04 E0= -.11653561E+04  d E =-.952345E-03  mag=     1.0000
