       N       E                     dE             d eps       ncg     rms          rms(c)
DAV:   1     0.470589615201E+04    0.47059E+04   -0.17889E+05  1888   0.948E+02
DAV:   2    -0.780431426341E+02   -0.47839E+04   -0.43800E+04  2432   0.212E+02
DAV:   3    -0.120009464046E+04   -0.11221E+04   -0.11161E+04  1984   0.111E+02
DAV:   4    -0.124690918409E+04   -0.46815E+02   -0.46502E+02  1920   0.300E+01
DAV:   5    -0.124812584596E+04   -0.12167E+01   -0.12135E+01  2368   0.449E+00    0.728E+01
RMM:   6    -0.122862011580E+04    0.19506E+02   -0.19895E+01  1597   0.534E+00    0.522E+01
RMM:   7    -0.121430880231E+04    0.14311E+02   -0.10583E+01  1536   0.434E+00    0.428E+01
RMM:   8    -0.118773308738E+04    0.26576E+02   -0.38155E+01  1642   0.786E+00    0.268E+01
RMM:   9    -0.117926706379E+04    0.84660E+01   -0.17777E+01  1536   0.577E+00    0.192E+01
RMM:  10    -0.117831741261E+04    0.94965E+00   -0.15172E+01  1547   0.518E+00    0.978E+00
RMM:  11    -0.117891472305E+04   -0.59731E+00   -0.27394E+00  1582   0.258E+00    0.684E+00
RMM:  12    -0.117842922741E+04    0.48550E+00   -0.51340E-01  1540   0.115E+00    0.360E+00
RMM:  13    -0.117820628618E+04    0.22294E+00   -0.11062E+00  1536   0.131E+00    0.134E+00
RMM:  14    -0.117819748377E+04    0.88024E-02   -0.92757E-02  1536   0.520E-01    0.671E-01
RMM:  15    -0.117819518063E+04    0.23031E-02   -0.23355E-02  1573   0.240E-01    0.426E-01
RMM:  16    -0.117819384105E+04    0.13396E-02   -0.10500E-02  1628   0.148E-01    0.244E-01
RMM:  17    -0.117819447804E+04   -0.63699E-03   -0.56550E-03  1587   0.101E-01    0.170E-01
RMM:  18    -0.117819457306E+04   -0.95020E-04   -0.11896E-03  1647   0.534E-02    0.144E-01
RMM:  19    -0.117819451080E+04    0.62255E-04   -0.58471E-04  1549   0.322E-02    0.991E-02
RMM:  20    -0.117819461847E+04   -0.10767E-03   -0.25480E-04  1576   0.223E-02    0.450E-02
RMM:  21    -0.117819459059E+04    0.27876E-04   -0.18718E-04  1546   0.179E-02    0.440E-02
RMM:  22    -0.117819459790E+04   -0.73036E-05   -0.54294E-05  1803   0.894E-03    0.335E-02
RMM:  23    -0.117819459378E+04    0.41175E-05   -0.13723E-05  1565   0.406E-03    0.318E-02
RMM:  24    -0.117819459457E+04   -0.79463E-06   -0.41804E-06  1189   0.201E-03
   1 F= -.11852771E+04 E0= -.11852771E+04  d E =-.118528E+04  mag=     1.9988
       N       E                     dE             d eps       ncg     rms          rms(c)
DAV:   1    -0.117819067857E+04    0.39152E-02   -0.40550E-01  1856   0.133E+00    0.215E-01
RMM:   2    -0.117819262088E+04   -0.19423E-02   -0.20651E-02  1554   0.214E-01    0.181E-01
RMM:   3    -0.117819300162E+04   -0.38074E-03   -0.48912E-03  1695   0.873E-02    0.144E-01
RMM:   4    -0.117819292082E+04    0.80805E-04   -0.61819E-04  1871   0.353E-02    0.122E-01
RMM:   5    -0.117819274477E+04    0.17605E-03   -0.49795E-04  1559   0.297E-02    0.621E-02
RMM:   6    -0.117819273984E+04    0.49243E-05   -0.25264E-04  1565   0.213E-02    0.413E-02
RMM:   7    -0.117819273421E+04    0.56345E-05   -0.34167E-05  1619   0.982E-03    0.229E-02
RMM:   8    -0.117819273773E+04   -0.35237E-05   -0.27760E-05  1547   0.692E-03    0.132E-02
RMM:   9    -0.117819273511E+04    0.26197E-05   -0.82048E-06  1528   0.407E-03    0.836E-03
RMM:  10    -0.117819273562E+04   -0.50762E-06   -0.77799E-06  1504   0.355E-03
   2 F= -.11852758E+04 E0= -.11852758E+04  d E =0.135317E-02  mag=     2.0000
       N       E                     dE             d eps       ncg     rms          rms(c)
DAV:   1    -0.117819421120E+04   -0.14761E-02   -0.17436E-01  1728   0.869E-01    0.143E-01
RMM:   2    -0.117819494298E+04   -0.73178E-03   -0.79775E-03  1542   0.137E-01    0.118E-01
RMM:   3    -0.117819507562E+04   -0.13264E-03   -0.18408E-03  1623   0.539E-02    0.931E-02
RMM:   4    -0.117819503647E+04    0.39148E-04   -0.22356E-04  1781   0.222E-02    0.777E-02
RMM:   5    -0.117819496171E+04    0.74764E-04   -0.21074E-04  1558   0.195E-02    0.394E-02
RMM:   6    -0.117819495884E+04    0.28627E-05   -0.10330E-04  1561   0.138E-02    0.257E-02
RMM:   7    -0.117819495651E+04    0.23362E-05   -0.13715E-05  1542   0.633E-03    0.142E-02
RMM:   8    -0.117819495708E+04   -0.57111E-06   -0.10554E-05  1535   0.437E-03    0.896E-03
RMM:   9    -0.117819495606E+04    0.10200E-05   -0.32941E-06  1212   0.255E-03    0.621E-03
RMM:  10    -0.117819495590E+04    0.16073E-06   -0.23650E-06  1083   0.205E-03
   3 F= -.11852776E+04 E0= -.11852776E+04  d E =-.535451E-03  mag=     2.0000
