       N       E                     dE             d eps       ncg     rms          rms(c)
DAV:   1     0.494339982824E+04    0.49434E+04   -0.17173E+05  1728   0.990E+02
DAV:   2     0.392641474815E+02   -0.49041E+04   -0.44999E+04  2232   0.218E+02
DAV:   3    -0.117981922408E+04   -0.12191E+04   -0.12120E+04  1872   0.120E+02
DAV:   4    -0.123403682237E+04   -0.54218E+02   -0.53841E+02  1800   0.336E+01
DAV:   5    -0.123534493029E+04   -0.13081E+01   -0.13033E+01  2016   0.492E+00    0.763E+01
RMM:   6    -0.122090888928E+04    0.14436E+02   -0.77097E+00  1440   0.343E+00    0.661E+01
RMM:   7    -0.117453096259E+04    0.46378E+02   -0.98116E+01  1442   0.117E+01    0.463E+01
RMM:   8    -0.117098934269E+04    0.35416E+01   -0.62990E+00  1450   0.323E+00    0.398E+01
RMM:   9    -0.116496120121E+04    0.60281E+01   -0.41781E+01  1440   0.799E+00    0.267E+01
RMM:  10    -0.116677299101E+04   -0.18118E+01   -0.14757E+00  1511   0.175E+00    0.216E+01
RMM:  11    -0.116769955488E+04   -0.92656E+00   -0.42483E+00  1440   0.199E+00    0.162E+01
RMM:  12    -0.116826597588E+04   -0.56642E+00   -0.52572E-01  1454   0.712E-01    0.149E+01
RMM:  13    -0.116786922964E+04    0.39675E+00   -0.33680E-01  1440   0.652E-01    0.826E+00
RMM:  14    -0.116574982858E+04    0.21194E+01   -0.21171E+00  1440   0.171E+00    0.532E+00
RMM:  15    -0.116709782969E+04   -0.13480E+01   -0.34663E-01  1454   0.669E-01    0.293E+00
RMM:  16    -0.116734466708E+04   -0.24684E+00   -0.85117E-02  1445   0.310E-01    0.196E+00
RMM:  17    -0.116736104120E+04   -0.16374E-01   -0.98934E-03  1576   0.112E-01    0.103E+00
RMM:  18    -0.116746518848E+04   -0.10415E+00   -0.63349E-02  1426   0.223E-01    0.656E-01
RMM:  19    -0.116745266714E+04    0.12521E-01   -0.43065E-03  1343   0.722E-02    0.186E+00
RMM:  20    -0.116749799903E+04   -0.45332E-01   -0.45788E-02  1316   0.153E-01    0.584E-01
RMM:  21    -0.116749550215E+04    0.24969E-02   -0.25802E-03  1270   0.483E-02    0.304E-01
RMM:  22    -0.116749912966E+04   -0.36275E-02   -0.16511E-03  1097   0.371E-02    0.121E+00
RMM:  23    -0.116750560850E+04   -0.64788E-02   -0.88803E-03  1091   0.663E-02    0.790E-01
RMM:  24    -0.116750686850E+04   -0.12600E-02   -0.35550E-03  1053   0.321E-02    0.251E-01
RMM:  25    -0.116750698688E+04   -0.11838E-03   -0.53642E-04   994   0.138E-02    0.156E-01
RMM:  26    -0.116750697605E+04    0.10833E-04   -0.29279E-05   884   0.692E-03
   1 F= -.11748006E+04 E0= -.11747942E+04  d E =-.117480E+04  mag=    -0.9134
       N       E                     dE             d eps       ncg     rms          rms(c)
DAV:   1    -0.116750414409E+04    0.28428E-02   -0.60242E-01  1548   0.134E+00    0.925E-01
RMM:   2    -0.116750567060E+04   -0.15265E-02   -0.17688E-02  1441   0.195E-01    0.753E-01
RMM:   3    -0.116750531039E+04    0.36020E-03   -0.12130E-03  1378   0.460E-02    0.596E-01
RMM:   4    -0.116750502399E+04    0.28640E-03   -0.19972E-03  1423   0.544E-02    0.376E-01
RMM:   5    -0.116750513475E+04   -0.11075E-03   -0.17474E-04   949   0.142E-02    0.216E-01
RMM:   6    -0.116750482952E+04    0.30523E-03   -0.30550E-04   967   0.150E-02    0.122E-01
RMM:   7    -0.116750512705E+04   -0.29753E-03   -0.25205E-04   955   0.137E-02    0.115E-01
RMM:   8    -0.116750510589E+04    0.21161E-04   -0.59838E-05   890   0.956E-03
   2 F= -.11747990E+04 E0= -.11747919E+04  d E =0.157555E-02  mag=    -0.9048
       N       E                     dE             d eps       ncg     rms          rms(c)
DAV:   1    -0.116750736959E+04   -0.22425E-02   -0.25496E-01  1440   0.870E-01    0.605E-01
RMM:   2    -0.116750781109E+04   -0.44150E-03   -0.63811E-03  1441   0.123E-01    0.490E-01
RMM:   3    -0.116750638340E+04    0.14277E-02   -0.18899E-03  1125   0.433E-02    0.377E-01
RMM:   4    -0.116750658207E+04   -0.19867E-03   -0.53959E-04  1182   0.297E-02    0.194E-01
RMM:   5    -0.116750759334E+04   -0.10113E-02   -0.12843E-03  1048   0.310E-02    0.146E-01
RMM:   6    -0.116750706531E+04    0.52802E-03   -0.51779E-04   973   0.208E-02    0.194E-01
RMM:   7    -0.116750760124E+04   -0.53593E-03   -0.60952E-04   973   0.179E-02    0.837E-02
RMM:   8    -0.116750758125E+04    0.19996E-04   -0.86081E-05   903   0.891E-03
   3 F= -.11748013E+04 E0= -.11747945E+04  d E =-.708307E-03  mag=    -0.9100
