       N       E                     dE             d eps       ncg     rms          rms(c)
DAV:   1     0.456909802322E+04    0.45691E+04   -0.18421E+05  1980   0.936E+02
DAV:   2    -0.129607491882E+03   -0.46987E+04   -0.43147E+04  2520   0.208E+02
DAV:   3    -0.120542125578E+04   -0.10758E+04   -0.10703E+04  2088   0.107E+02
DAV:   4    -0.124841278807E+04   -0.42992E+02   -0.42612E+02  2016   0.278E+01
DAV:   5    -0.124952362476E+04   -0.11108E+01   -0.11060E+01  2376   0.408E+00    0.703E+01
RMM:   6    -0.123130042724E+04    0.18223E+02   -0.25407E+01  1584   0.505E+00    0.554E+01
RMM:   7    -0.121570850036E+04    0.15592E+02   -0.92150E+00  1584   0.359E+00    0.433E+01
RMM:   8    -0.118891978173E+04    0.26789E+02   -0.36204E+01  1584   0.697E+00    0.276E+01
RMM:   9    -0.118071852503E+04    0.82013E+01   -0.15899E+01  1584   0.463E+00    0.198E+01
RMM:  10    -0.118161666901E+04   -0.89814E+00   -0.16558E+01  1584   0.464E+00    0.844E+00
RMM:  11    -0.118148459328E+04    0.13208E+00   -0.74391E-01  1625   0.111E+00    0.623E+00
RMM:  12    -0.118086465955E+04    0.61993E+00   -0.13010E+00  1584   0.126E+00    0.289E+00
RMM:  13    -0.118072433505E+04    0.14032E+00   -0.14425E-01  1585   0.450E-01    0.148E+00
RMM:  14    -0.118067078457E+04    0.53550E-01   -0.14346E-01  1584   0.405E-01    0.644E-01
RMM:  15    -0.118067109042E+04   -0.30585E-03   -0.24563E-02  1593   0.186E-01    0.392E-01
RMM:  16    -0.118067004449E+04    0.10459E-02   -0.64805E-03  1584   0.945E-02    0.292E-01
RMM:  17    -0.118067037861E+04   -0.33412E-03   -0.36429E-03  1584   0.711E-02    0.161E-01
RMM:  18    -0.118067016644E+04    0.21217E-03   -0.53551E-04  1338   0.283E-02    0.101E-01
RMM:  19    -0.118067015843E+04    0.80033E-05   -0.78985E-05  1033   0.119E-02
   1 F= -.11878997E+04 E0= -.11878997E+04  d E =-.118790E+04  mag=    -0.0024
       N       E                     dE             d eps       ncg     rms          rms(c)
DAV:   1    -0.118066173868E+04    0.84278E-02   -0.34249E+00  1656   0.275E+00    0.134E+00
RMM:   2    -0.118067017837E+04   -0.84397E-02   -0.12888E-01  1584   0.445E-01    0.122E+00
RMM:   3    -0.118066884594E+04    0.13324E-02   -0.49144E-03  1711   0.726E-02    0.109E+00
RMM:   4    -0.118066864981E+04    0.19613E-03   -0.92433E-03  1584   0.113E-01    0.155E-01
RMM:   5    -0.118066857033E+04    0.79477E-04   -0.34977E-04  1165   0.245E-02
   2 F= -.11878996E+04 E0= -.11878996E+04  d E =0.748108E-04  mag=     0.0004
       N       E                     dE             d eps       ncg     rms          rms(c)
DAV:   1    -0.118067224107E+04   -0.35913E-02   -0.78959E-01  1764   0.133E+00    0.634E-01
RMM:   2    -0.118067376882E+04   -0.15278E-02   -0.27867E-02  1584   0.207E-01    0.589E-01
RMM:   3    -0.118067332028E+04    0.44854E-03   -0.92286E-04  1246   0.331E-02    0.530E-01
RMM:   4    -0.118067314129E+04    0.17899E-03   -0.43823E-03  1584   0.755E-02    0.942E-02
RMM:   5    -0.118067311455E+04    0.26739E-04   -0.13649E-04  1062   0.167E-02
   3 F= -.11879035E+04 E0= -.11879035E+04  d E =-.374660E-02  mag=     0.0001
       N       E                     dE             d eps       ncg     rms          rms(c)
DAV:   1    -0.118067474539E+04   -0.16041E-02   -0.12059E+00  1656   0.164E+00    0.480E-01
RMM:   2    -0.118067626116E+04   -0.15158E-02   -0.31213E-02  1584   0.230E-01    0.383E-01
RMM:   3    -0.118067550336E+04    0.75780E-03   -0.12323E-03  1459   0.422E-02    0.337E-01
RMM:   4    -0.118067472063E+04    0.78273E-03   -0.53399E-03  1584   0.824E-02    0.976E-02
RMM:   5    -0.118067475173E+04   -0.31097E-04   -0.25870E-04  1152   0.211E-02
   4 F= -.11879054E+04 E0= -.11879054E+04  d E =-.196397E-02  mag=    -0.0000
       N       E                     dE             d eps       ncg     rms          rms(c)
DAV:   1    -0.118067503695E+04   -0.31631E-03   -0.79470E-02  1656   0.422E-01    0.123E-01
RMM:   2    -0.118067506533E+04   -0.28384E-04   -0.19822E-03  1436   0.570E-02    0.964E-02
RMM:   3    -0.118067496137E+04    0.10396E-03   -0.91549E-05   992   0.131E-02    0.815E-02
RMM:   4    -0.118067484289E+04    0.11848E-03   -0.77389E-04  1546   0.309E-02    0.255E-02
RMM:   5    -0.118067484229E+04    0.59797E-06   -0.17139E-05   970   0.630E-03
   5 F= -.11879054E+04 E0= -.11879054E+04  d E =-.197092E-02  mag=    -0.0000
       N       E                     dE             d eps       ncg     rms          rms(c)
DAV:   1    -0.118067433237E+04    0.51052E-03   -0.85273E-01  1728   0.149E+00    0.261E-01
RMM:   2    -0.118067741869E+04   -0.30863E-02   -0.35541E-02  1584   0.233E-01    0.213E-01
RMM:   3    -0.118067689062E+04    0.52807E-03   -0.11057E-03  1290   0.374E-02    0.184E-01
RMM:   4    -0.118067680664E+04    0.83984E-04   -0.16489E-03  1576   0.468E-02    0.645E-02
RMM:   5    -0.118067683718E+04   -0.30546E-04   -0.10925E-04  1052   0.142E-02
   6 F= -.11879075E+04 E0= -.11879075E+04  d E =-.203363E-02  mag=     0.0000
       N       E                     dE             d eps       ncg     rms          rms(c)
DAV:   1    -0.118067682107E+04   -0.14428E-04   -0.47888E-03  1728   0.113E-01    0.313E-02
RMM:   2    -0.118067683121E+04   -0.10148E-04   -0.19234E-04  1057   0.175E-02
   7 F= -.11879075E+04 E0= -.11879075E+04  d E =-.202494E-02  mag=     0.0000
       N       E                     dE             d eps       ncg     rms          rms(c)
DAV:   1    -0.118067740905E+04   -0.58799E-03   -0.52233E-01  1656   0.108E+00    0.189E-01
RMM:   2    -0.118067866410E+04   -0.12551E-02   -0.16582E-02  1584   0.159E-01    0.129E-01
RMM:   3    -0.118067847144E+04    0.19266E-03   -0.50391E-04  1178   0.264E-02    0.115E-01
RMM:   4    -0.118067853737E+04   -0.65929E-04   -0.40613E-04  1290   0.249E-02
   8 F= -.11879092E+04 E0= -.11879092E+04  d E =-.176933E-02  mag=    -0.0000
       N       E                     dE             d eps       ncg     rms          rms(c)
DAV:   1    -0.118067731712E+04    0.11543E-02   -0.85282E-01  1584   0.139E+00    0.246E-01
RMM:   2    -0.118067933518E+04   -0.20181E-02   -0.26418E-02  1584   0.201E-01    0.176E-01
RMM:   3    -0.118067905166E+04    0.28351E-03   -0.83044E-04  1268   0.333E-02    0.157E-01
RMM:   4    -0.118067921770E+04   -0.16604E-03   -0.58563E-04  1400   0.301E-02    0.511E-02
RMM:   5    -0.118067928436E+04   -0.66660E-04   -0.79741E-05  1028   0.130E-02
   9 F= -.11879101E+04 E0= -.11879101E+04  d E =-.259888E-02  mag=     0.0000
       N       E                     dE             d eps       ncg     rms          rms(c)
DAV:   1    -0.118068023372E+04   -0.10160E-02   -0.18364E-01  1692   0.585E-01    0.147E-01
RMM:   2    -0.118068039285E+04   -0.15913E-03   -0.38257E-03  1576   0.761E-02    0.106E-01
RMM:   3    -0.118068036899E+04    0.23859E-04   -0.11063E-04  1050   0.137E-02
  10 F= -.11879112E+04 E0= -.11879112E+04  d E =-.111821E-02  mag=    -0.0000
       N       E                     dE             d eps       ncg     rms          rms(c)
DAV:   1    -0.118068112907E+04   -0.73622E-03   -0.16373E+00  1584   0.175E+00    0.451E-01
RMM:   2    -0.118068276684E+04   -0.16378E-02   -0.32958E-02  1584   0.220E-01    0.333E-01
RMM:   3    -0.118068249745E+04    0.26939E-03   -0.10679E-03  1346   0.387E-02    0.297E-01
RMM:   4    -0.118068270948E+04   -0.21204E-03   -0.20663E-03  1584   0.527E-02    0.673E-02
RMM:   5    -0.118068275068E+04   -0.41194E-04   -0.10166E-04  1064   0.136E-02
  11 F= -.11879137E+04 E0= -.11879137E+04  d E =-.360949E-02  mag=     0.0000
       N       E                     dE             d eps       ncg     rms          rms(c)
DAV:   1    -0.118068363147E+04   -0.92199E-03   -0.40515E-02  1800   0.335E-01    0.658E-02
RMM:   2    -0.118068373119E+04   -0.99711E-04   -0.13522E-03  1432   0.508E-02    0.585E-02
RMM:   3    -0.118068370929E+04    0.21897E-04   -0.52431E-05   968   0.107E-02
  12 F= -.11879146E+04 E0= -.11879146E+04  d E =-.925432E-03  mag=    -0.0000
       N       E                     dE             d eps       ncg     rms          rms(c)
DAV:   1    -0.118068415228E+04   -0.42110E-03   -0.26470E-01  1584   0.857E-01    0.148E-01
RMM:   2    -0.118068488073E+04   -0.72845E-03   -0.86434E-03  1584   0.126E-01    0.133E-01
RMM:   3    -0.118068476989E+04    0.11084E-03   -0.29168E-04  1122   0.217E-02    0.120E-01
RMM:   4    -0.118068479340E+04   -0.23506E-04   -0.56813E-04  1462   0.284E-02
  13 F= -.11879156E+04 E0= -.11879156E+04  d E =-.192802E-02  mag=     0.0000
       N       E                     dE             d eps       ncg     rms          rms(c)
DAV:   1    -0.118068544815E+04   -0.67826E-03   -0.44849E-02  1800   0.318E-01    0.571E-02
RMM:   2    -0.118068550967E+04   -0.61524E-04   -0.10655E-03  1328   0.443E-02    0.470E-02
RMM:   3    -0.118068549946E+04    0.10213E-04   -0.50701E-05   962   0.110E-02
  14 F= -.11879162E+04 E0= -.11879162E+04  d E =-.652155E-03  mag=    -0.0000
       N       E                     dE             d eps       ncg     rms          rms(c)
DAV:   1    -0.118068610824E+04   -0.59857E-03   -0.40488E-01  1584   0.952E-01    0.160E-01
RMM:   2    -0.118068681451E+04   -0.70627E-03   -0.93605E-03  1584   0.129E-01    0.135E-01
RMM:   3    -0.118068670282E+04    0.11169E-03   -0.30342E-04  1144   0.227E-02    0.119E-01
RMM:   4    -0.118068682569E+04   -0.12287E-03   -0.80561E-04  1480   0.324E-02    0.340E-02
RMM:   5    -0.118068679749E+04    0.28199E-04   -0.23572E-05   994   0.788E-03
  15 F= -.11879174E+04 E0= -.11879174E+04  d E =-.179061E-02  mag=    -0.0000
       N       E                     dE             d eps       ncg     rms          rms(c)
DAV:   1    -0.118068791721E+04   -0.10915E-02   -0.10884E-01  1656   0.464E-01    0.110E-01
RMM:   2    -0.118068804646E+04   -0.12925E-03   -0.21342E-03  1534   0.609E-02    0.102E-01
RMM:   3    -0.118068802620E+04    0.20259E-04   -0.71514E-05  1008   0.117E-02
  16 F= -.11879185E+04 E0= -.11879185E+04  d E =-.116265E-02  mag=     0.0000
       N       E                     dE             d eps       ncg     rms          rms(c)
DAV:   1    -0.118068838554E+04   -0.33908E-03   -0.73350E-01  1584   0.120E+00    0.290E-01
RMM:   2    -0.118068933489E+04   -0.94935E-03   -0.13870E-02  1584   0.152E-01    0.269E-01
RMM:   3    -0.118068923860E+04    0.96296E-04   -0.50622E-04  1210   0.276E-02
  17 F= -.11879196E+04 E0= -.11879196E+04  d E =-.220560E-02  mag=    -0.0000
       N       E                     dE             d eps       ncg     rms          rms(c)
DAV:   1    -0.118069016988E+04   -0.83499E-03   -0.94084E-02  1584   0.407E-01    0.119E-01
RMM:   2    -0.118069021841E+04   -0.48526E-04   -0.16170E-03  1454   0.517E-02    0.104E-01
RMM:   3    -0.118069020431E+04    0.14103E-04   -0.75465E-05  1010   0.118E-02
  18 F= -.11879205E+04 E0= -.11879205E+04  d E =-.894036E-03  mag=     0.0000
       N       E                     dE             d eps       ncg     rms          rms(c)
DAV:   1    -0.118069071287E+04   -0.49446E-03   -0.89124E-01  1584   0.124E+00    0.241E-01
RMM:   2    -0.118069182310E+04   -0.11102E-02   -0.15712E-02  1584   0.157E-01    0.208E-01
RMM:   3    -0.118069166989E+04    0.15321E-03   -0.52959E-04  1212   0.284E-02    0.183E-01
RMM:   4    -0.118069189757E+04   -0.22768E-03   -0.14155E-03  1544   0.419E-02    0.481E-02
RMM:   5    -0.118069186505E+04    0.32516E-04   -0.39983E-05  1008   0.959E-03
  19 F= -.11879219E+04 E0= -.11879219E+04  d E =-.234391E-02  mag=     0.0000
       N       E                     dE             d eps       ncg     rms          rms(c)
DAV:   1    -0.118069327189E+04   -0.13743E-02   -0.25359E-01  1584   0.669E-01    0.127E-01
RMM:   2    -0.118069360501E+04   -0.33312E-03   -0.48976E-03  1584   0.898E-02    0.110E-01
RMM:   3    -0.118069355787E+04    0.47141E-04   -0.14793E-04  1048   0.161E-02
  20 F= -.11879236E+04 E0= -.11879236E+04  d E =-.169082E-02  mag=     0.0000
       N       E                     dE             d eps       ncg     rms          rms(c)
DAV:   1    -0.118069275124E+04    0.85377E-03   -0.16258E+00  1584   0.169E+00    0.327E-01
RMM:   2    -0.118069501266E+04   -0.22614E-02   -0.29699E-02  1584   0.217E-01    0.287E-01
RMM:   3    -0.118069475279E+04    0.25987E-03   -0.10543E-03  1336   0.387E-02    0.256E-01
RMM:   4    -0.118069508947E+04   -0.33668E-03   -0.25510E-03  1578   0.577E-02    0.556E-02
RMM:   5    -0.118069506310E+04    0.26363E-04   -0.58833E-05  1044   0.118E-02
  21 F= -.11879251E+04 E0= -.11879251E+04  d E =-.320554E-02  mag=     0.0000
       N       E                     dE             d eps       ncg     rms          rms(c)
DAV:   1    -0.118069638688E+04   -0.12974E-02   -0.28572E-01  1728   0.925E-01    0.145E-01
RMM:   2    -0.118069701017E+04   -0.62329E-03   -0.83272E-03  1586   0.143E-01    0.139E-01
RMM:   3    -0.118069685586E+04    0.15431E-03   -0.35279E-04  1202   0.263E-02    0.128E-01
RMM:   4    -0.118069658596E+04    0.26990E-03   -0.23558E-03  1576   0.517E-02    0.489E-02
RMM:   5    -0.118069654709E+04    0.38871E-04   -0.42231E-05  1000   0.107E-02
  22 F= -.11879268E+04 E0= -.11879268E+04  d E =-.163400E-02  mag=    -0.0000
       N       E                     dE             d eps       ncg     rms          rms(c)
DAV:   1    -0.118069677625E+04   -0.19029E-03   -0.18322E-02  1728   0.235E-01    0.255E-02
RMM:   2    -0.118069682137E+04   -0.45121E-04   -0.48022E-04  1246   0.346E-02
  23 F= -.11879270E+04 E0= -.11879270E+04  d E =-.186903E-02  mag=    -0.0000
