       N       E                     dE             d eps       ncg     rms          rms(c)
DAV:   1     0.505076805467E+04    0.50508E+04   -0.16912E+05  1700   0.990E+02
DAV:   2     0.159693324178E+03   -0.48911E+04   -0.44413E+04  2248   0.240E+02
DAV:   3    -0.113435676957E+04   -0.12941E+04   -0.12743E+04  1960   0.139E+02
DAV:   4    -0.123420124730E+04   -0.99844E+02   -0.99163E+02  2248   0.565E+01
DAV:   5    -0.123550030595E+04   -0.12991E+01   -0.12845E+01  1856   0.525E+00    0.645E+01
RMM:   6    -0.121936811941E+04    0.16132E+02   -0.81637E+00  1756   0.439E+00    0.515E+01
RMM:   7    -0.118156854593E+04    0.37800E+02   -0.98667E+01  1601   0.122E+01    0.310E+01
RMM:   8    -0.117490310205E+04    0.66654E+01   -0.10441E+01  1858   0.653E+00    0.269E+01
RMM:   9    -0.116657974825E+04    0.83234E+01   -0.23328E+01  1538   0.641E+00    0.187E+01
RMM:  10    -0.116717075097E+04   -0.59100E+00   -0.16757E+01  1624   0.582E+00    0.122E+01
RMM:  11    -0.116653789245E+04    0.63286E+00   -0.21265E+00  1885   0.298E+00    0.735E+00
RMM:  12    -0.116660053608E+04   -0.62644E-01   -0.16035E+00  1756   0.138E+00    0.569E+00
RMM:  13    -0.116526603686E+04    0.13345E+01   -0.15471E+00  1576   0.150E+00    0.211E+00
RMM:  14    -0.116519825329E+04    0.67784E-01   -0.33209E-01  1802   0.879E-01    0.153E+00
RMM:  15    -0.116575914970E+04   -0.56090E+00   -0.30296E-01  1583   0.547E-01    0.900E-01
RMM:  16    -0.116591052028E+04   -0.15137E+00   -0.16859E-01  1575   0.390E-01    0.477E-01
RMM:  17    -0.116593257983E+04   -0.22060E-01   -0.49224E-02  1522   0.282E-01    0.331E-01
RMM:  18    -0.116593494655E+04   -0.23667E-02   -0.10191E-02  1089   0.184E-01    0.267E-01
RMM:  19    -0.116593602292E+04   -0.10764E-02   -0.30392E-03   982   0.923E-02    0.212E-01
RMM:  20    -0.116593643792E+04   -0.41499E-03   -0.17548E-03   956   0.752E-02
   1 F= -.11730104E+04 E0= -.11730104E+04  d E =-.117301E+04  mag=    -1.0099
