       N       E                     dE             d eps       ncg     rms          rms(c)
DAV:   1     0.508064634170E+04    0.50806E+04   -0.17110E+05  1740   0.988E+02
DAV:   2     0.898718729682E+02   -0.49908E+04   -0.45457E+04  2272   0.230E+02
DAV:   3    -0.118712168437E+04   -0.12770E+04   -0.12580E+04  1904   0.125E+02
DAV:   4    -0.125091437163E+04   -0.63793E+02   -0.63115E+02  1864   0.371E+01
DAV:   5    -0.125291540567E+04   -0.20010E+01   -0.19904E+01  2192   0.729E+00    0.768E+01
RMM:   6    -0.125020567105E+04    0.27097E+01   -0.10747E+02  1684   0.175E+01    0.835E+01
RMM:   7    -0.122578939653E+04    0.24416E+02   -0.14892E+01  1460   0.731E+00    0.582E+01
RMM:   8    -0.120864082558E+04    0.17149E+02   -0.14559E+01  1502   0.506E+00    0.470E+01
RMM:   9    -0.118297359806E+04    0.25667E+02   -0.36865E+01  1596   0.838E+00    0.273E+01
RMM:  10    -0.117845319652E+04    0.45204E+01   -0.71881E+00  1571   0.442E+00    0.216E+01
RMM:  11    -0.117446064991E+04    0.39925E+01   -0.22165E+01  1643   0.611E+00    0.142E+01
RMM:  12    -0.117488064201E+04   -0.41999E+00   -0.46844E+00  1612   0.366E+00    0.941E+00
RMM:  13    -0.117498361434E+04   -0.10297E+00   -0.77555E-01  1684   0.135E+00    0.879E+00
RMM:  14    -0.117424893900E+04    0.73468E+00   -0.61158E-01  1460   0.107E+00    0.501E+00
RMM:  15    -0.117401254261E+04    0.23640E+00   -0.41934E-01  1470   0.894E-01    0.179E+00
RMM:  16    -0.117401010607E+04    0.24365E-02   -0.13573E-01  1604   0.562E-01    0.149E+00
RMM:  17    -0.117400521057E+04    0.48955E-02   -0.31639E-02  1638   0.276E-01    0.105E+00
RMM:  18    -0.117401004844E+04   -0.48379E-02   -0.84266E-03  1624   0.135E-01    0.109E+00
RMM:  19    -0.117400095807E+04    0.90904E-02   -0.67136E-03  1582   0.113E-01    0.503E-01
RMM:  20    -0.117400140909E+04   -0.45101E-03   -0.19001E-03  1751   0.585E-02    0.433E-01
RMM:  21    -0.117400047699E+04    0.93209E-03   -0.84022E-04  1523   0.374E-02    0.273E-01
RMM:  22    -0.117400001530E+04    0.46169E-03   -0.71019E-04  1584   0.303E-02    0.123E-01
RMM:  23    -0.117399988163E+04    0.13367E-03   -0.20655E-04  1502   0.189E-02    0.921E-02
RMM:  24    -0.117399987276E+04    0.88696E-05   -0.15078E-04  1627   0.167E-02    0.594E-02
RMM:  25    -0.117399984571E+04    0.27046E-04   -0.67326E-05  1601   0.101E-02    0.245E-02
RMM:  26    -0.117399983909E+04    0.66244E-05   -0.34290E-05  1563   0.749E-03    0.142E-02
RMM:  27    -0.117399983820E+04    0.88511E-06   -0.89992E-06  1402   0.438E-03
   1 F= -.11811055E+04 E0= -.11811055E+04  d E =-.118111E+04  mag=    -0.0007
