       N       E                     dE             d eps       ncg     rms          rms(c)
DAV:   1     0.463794056795E+04    0.46379E+04   -0.18049E+05  1920   0.951E+02
DAV:   2    -0.769811609237E+02   -0.47149E+04   -0.43131E+04  2400   0.212E+02
DAV:   3    -0.120046550392E+04   -0.11235E+04   -0.11166E+04  1952   0.111E+02
DAV:   4    -0.124867890385E+04   -0.48213E+02   -0.47920E+02  1920   0.307E+01
DAV:   5    -0.124989916334E+04   -0.12203E+01   -0.12172E+01  2336   0.454E+00    0.810E+01
RMM:   6    -0.124199615660E+04    0.79030E+01   -0.95093E+01  1787   0.115E+01    0.754E+01
RMM:   7    -0.121846616742E+04    0.23530E+02   -0.11477E+01  1603   0.454E+00    0.467E+01
RMM:   8    -0.120293795453E+04    0.15528E+02   -0.12426E+01  1542   0.450E+00    0.364E+01
RMM:   9    -0.118033960887E+04    0.22598E+02   -0.36981E+01  1670   0.759E+00    0.242E+01
RMM:  10    -0.117626709295E+04    0.40725E+01   -0.17177E+01  1632   0.579E+00    0.204E+01
RMM:  11    -0.117519992293E+04    0.10672E+01   -0.44546E+00  1696   0.331E+00    0.118E+01
RMM:  12    -0.117603338109E+04   -0.83346E+00   -0.31188E+00  1582   0.233E+00    0.810E+00
RMM:  13    -0.117593707362E+04    0.96307E-01   -0.48244E-01  1657   0.108E+00    0.113E+01
RMM:  14    -0.117593896155E+04   -0.18879E-02   -0.14745E-01  1877   0.588E-01    0.114E+01
RMM:  15    -0.117616574953E+04   -0.22679E+00   -0.63989E-02  1648   0.323E-01    0.111E+01
RMM:  16    -0.117606789271E+04    0.97857E-01   -0.77139E-01  2091   0.103E+00    0.652E+00
RMM:  17    -0.117575595130E+04    0.31194E+00   -0.22903E-01  1683   0.627E-01    0.489E+00
RMM:  18    -0.117539468097E+04    0.36127E+00   -0.62103E-01  2078   0.903E-01    0.658E+00
RMM:  19    -0.117541823311E+04   -0.23552E-01   -0.34877E-02  1634   0.353E-01    0.643E+00
RMM:  20    -0.117544237206E+04   -0.24139E-01   -0.62027E-02  1680   0.330E-01    0.509E+00
RMM:  21    -0.117543412944E+04    0.82426E-02   -0.11341E-01  1822   0.385E-01    0.102E+00
RMM:  22    -0.117543956565E+04   -0.54362E-02   -0.17312E-02  1874   0.186E-01    0.757E-01
RMM:  23    -0.117544098039E+04   -0.14147E-02   -0.45460E-03  1729   0.941E-02    0.554E-01
RMM:  24    -0.117544173041E+04   -0.75002E-03   -0.20180E-03  1773   0.635E-02    0.502E-01
RMM:  25    -0.117544151168E+04    0.21873E-03   -0.12170E-03  1608   0.454E-02    0.740E-01
RMM:  26    -0.117544107762E+04    0.43407E-03   -0.27339E-03  1774   0.591E-02    0.298E-01
RMM:  27    -0.117544135236E+04   -0.27474E-03   -0.33697E-04  1600   0.290E-02    0.216E-01
RMM:  28    -0.117544135282E+04   -0.46087E-06   -0.90999E-05  1725   0.129E-02    0.161E-01
RMM:  29    -0.117544135800E+04   -0.51861E-05   -0.95546E-05  1687   0.113E-02    0.877E-02
RMM:  30    -0.117544134326E+04    0.14740E-04   -0.59740E-05  1635   0.108E-02    0.709E-02
RMM:  31    -0.117544134370E+04   -0.43296E-06   -0.14383E-05  1615   0.526E-03    0.307E-02
RMM:  32    -0.117544135374E+04   -0.10041E-04   -0.62096E-06  1264   0.343E-03    0.475E-02
RMM:  33    -0.117544135055E+04    0.31867E-05   -0.30072E-06  1111   0.233E-03    0.217E-02
RMM:  34    -0.117544135154E+04   -0.98945E-06   -0.10290E-06  1042   0.142E-03
   1 F= -.11825343E+04 E0= -.11825282E+04  d E =-.118253E+04  mag=     2.9998
       N       E                     dE             d eps       ncg     rms          rms(c)
DAV:   1    -0.117543973915E+04    0.16114E-02   -0.30162E-01  1600   0.988E-01    0.136E-01
RMM:   2    -0.117544060184E+04   -0.86270E-03   -0.95506E-03  1718   0.153E-01    0.173E-01
RMM:   3    -0.117544075430E+04   -0.15246E-03   -0.21737E-03  1987   0.662E-02    0.134E-01
RMM:   4    -0.117544073847E+04    0.15830E-04   -0.36000E-04  2171   0.254E-02    0.114E-01
RMM:   5    -0.117544056240E+04    0.17607E-03   -0.41924E-04  1566   0.245E-02    0.742E-02
RMM:   6    -0.117544055983E+04    0.25713E-05   -0.42101E-04  1576   0.245E-02    0.439E-02
RMM:   7    -0.117544054526E+04    0.14569E-04   -0.38772E-05  1588   0.997E-03    0.284E-02
RMM:   8    -0.117544054871E+04   -0.34415E-05   -0.39165E-05  1592   0.798E-03    0.331E-02
RMM:   9    -0.117544054487E+04    0.38382E-05   -0.79718E-06  1657   0.440E-03    0.171E-02
RMM:  10    -0.117544054501E+04   -0.14488E-06   -0.62019E-06  1503   0.319E-03
   2 F= -.11825340E+04 E0= -.11825279E+04  d E =0.277348E-03  mag=     3.0000
       N       E                     dE             d eps       ncg     rms          rms(c)
DAV:   1    -0.117544148607E+04   -0.94121E-03   -0.92854E-02  1792   0.545E-01    0.809E-02
RMM:   2    -0.117544169053E+04   -0.20445E-03   -0.23388E-03  1695   0.814E-02    0.122E-01
RMM:   3    -0.117544170620E+04   -0.15674E-04   -0.48628E-04  1825   0.343E-02    0.717E-02
RMM:   4    -0.117544169758E+04    0.86225E-05   -0.94193E-05  2022   0.140E-02    0.602E-02
RMM:   5    -0.117544164076E+04    0.56819E-04   -0.18970E-04  1567   0.167E-02    0.355E-02
RMM:   6    -0.117544164193E+04   -0.11654E-05   -0.72170E-05  1612   0.111E-02    0.199E-02
RMM:   7    -0.117544163956E+04    0.23623E-05   -0.78581E-06  1643   0.459E-03    0.130E-02
RMM:   8    -0.117544164033E+04   -0.76235E-06   -0.89990E-06  1548   0.390E-03
   3 F= -.11825348E+04 E0= -.11825288E+04  d E =-.524820E-03  mag=     3.0000
       N       E                     dE             d eps       ncg     rms          rms(c)
DAV:   1    -0.117544138723E+04    0.25234E-03   -0.17765E-01  1952   0.778E-01    0.143E-01
RMM:   2    -0.117544200747E+04   -0.62024E-03   -0.60579E-03  1740   0.111E-01    0.277E-01
RMM:   3    -0.117544195870E+04    0.48771E-04   -0.89300E-04  1813   0.459E-02    0.118E-01
RMM:   4    -0.117544198876E+04   -0.30057E-04   -0.20793E-04  1896   0.200E-02    0.864E-02
RMM:   5    -0.117544196974E+04    0.19012E-04   -0.13044E-04  1586   0.147E-02    0.657E-02
RMM:   6    -0.117544196648E+04    0.32607E-05   -0.49848E-05  1629   0.925E-03    0.304E-02
RMM:   7    -0.117544197511E+04   -0.86271E-05   -0.20318E-05  1630   0.638E-03    0.224E-02
RMM:   8    -0.117544197890E+04   -0.37936E-05   -0.56465E-06  1384   0.342E-03    0.393E-02
RMM:   9    -0.117544197786E+04    0.10410E-05   -0.15222E-06  1058   0.193E-03    0.296E-02
RMM:  10    -0.117544197807E+04   -0.21065E-06   -0.13524E-06  1059   0.148E-03
   4 F= -.11825355E+04 E0= -.11825294E+04  d E =-.654768E-03  mag=     3.0000
