       N       E                     dE             d eps       ncg     rms          rms(c)
DAV:   1     0.457723898684E+04    0.45772E+04   -0.17696E+05  1944   0.911E+02
DAV:   2    -0.114816192514E+03   -0.46921E+04   -0.42709E+04  2520   0.203E+02
DAV:   3    -0.119334769740E+04   -0.10785E+04   -0.10742E+04  2088   0.106E+02
DAV:   4    -0.123673144414E+04   -0.43384E+02   -0.43147E+02  2052   0.282E+01
DAV:   5    -0.123786510256E+04   -0.11337E+01   -0.11310E+01  2376   0.424E+00    0.683E+01
RMM:   6    -0.122139888012E+04    0.16466E+02   -0.23326E+01  1786   0.460E+00    0.543E+01
RMM:   7    -0.120309297509E+04    0.18306E+02   -0.13561E+01  1613   0.410E+00    0.425E+01
RMM:   8    -0.117465843775E+04    0.28435E+02   -0.49920E+01  1589   0.792E+00    0.260E+01
RMM:   9    -0.117073603994E+04    0.39224E+01   -0.18505E+01  1628   0.479E+00    0.168E+01
RMM:  10    -0.117161694442E+04   -0.88090E+00   -0.97426E+00  1623   0.347E+00    0.886E+00
RMM:  11    -0.117115367237E+04    0.46327E+00   -0.12290E+00  1794   0.125E+00    0.669E+00
RMM:  12    -0.117038853726E+04    0.76514E+00   -0.26252E+00  1617   0.171E+00    0.221E+00
RMM:  13    -0.117030971621E+04    0.78821E-01   -0.18361E-01  1759   0.565E-01    0.142E+00
RMM:  14    -0.117025871238E+04    0.51004E-01   -0.97882E-02  1706   0.293E-01    0.731E-01
RMM:  15    -0.117026116965E+04   -0.24573E-02   -0.15535E-02  1848   0.159E-01    0.559E-01
RMM:  16    -0.117025999460E+04    0.11751E-02   -0.60300E-03  1726   0.875E-02    0.363E-01
RMM:  17    -0.117025979502E+04    0.19957E-03   -0.11280E-03  1658   0.422E-02    0.240E-01
RMM:  18    -0.117025954636E+04    0.24866E-03   -0.13906E-03  1648   0.393E-02    0.769E-02
RMM:  19    -0.117025959025E+04   -0.43892E-04   -0.13191E-04  1084   0.168E-02
   1 F= -.11775272E+04 E0= -.11775272E+04  d E =-.117753E+04  mag=     0.0008
       N       E                     dE             d eps       ncg     rms          rms(c)
DAV:   1    -0.117025481936E+04    0.47270E-02   -0.43905E-01  1692   0.115E+00    0.242E-01
RMM:   2    -0.117025873644E+04   -0.39171E-02   -0.43336E-02  1898   0.255E-01    0.179E-01
RMM:   3    -0.117025875165E+04   -0.15214E-04   -0.28247E-03  1617   0.746E-02    0.257E-01
RMM:   4    -0.117025877123E+04   -0.19580E-04   -0.33429E-04  1145   0.187E-02
   2 F= -.11775268E+04 E0= -.11775268E+04  d E =0.406072E-03  mag=     0.0003
       N       E                     dE             d eps       ncg     rms          rms(c)
DAV:   1    -0.117025890881E+04   -0.15716E-03   -0.12473E-01  1656   0.611E-01    0.286E-01
RMM:   2    -0.117026002454E+04   -0.11157E-02   -0.11617E-02  1892   0.134E-01    0.184E-01
RMM:   3    -0.117026007765E+04   -0.53111E-04   -0.76676E-04  1249   0.395E-02
   3 F= -.11775279E+04 E0= -.11775279E+04  d E =-.679835E-03  mag=    -0.0000
