       N       E                     dE             d eps       ncg     rms          rms(c)
DAV:   1     0.460677035372E+04    0.46068E+04   -0.17247E+05  1764   0.987E+02
DAV:   2    -0.527958712140E+02   -0.46596E+04   -0.42684E+04  2268   0.216E+02
DAV:   3    -0.118266955284E+04   -0.11299E+04   -0.11233E+04  1872   0.115E+02
DAV:   4    -0.123110865858E+04   -0.48439E+02   -0.48098E+02  1872   0.317E+01
DAV:   5    -0.123227473710E+04   -0.11661E+01   -0.11632E+01  2052   0.463E+00    0.650E+01
RMM:   6    -0.121693939416E+04    0.15335E+02   -0.20510E+01  1440   0.465E+00    0.508E+01
RMM:   7    -0.119707809449E+04    0.19861E+02   -0.14010E+01  1440   0.465E+00    0.384E+01
RMM:   8    -0.117082525273E+04    0.26253E+02   -0.41169E+01  1440   0.793E+00    0.240E+01
RMM:   9    -0.116593157922E+04    0.48937E+01   -0.23361E+01  1440   0.596E+00    0.135E+01
RMM:  10    -0.116749002250E+04   -0.15584E+01   -0.62687E+00  1442   0.315E+00    0.832E+00
RMM:  11    -0.116684299689E+04    0.64703E+00   -0.98254E-01  1452   0.108E+00    0.536E+00
RMM:  12    -0.116631632165E+04    0.52668E+00   -0.20249E+00  1440   0.169E+00    0.115E+00
RMM:  13    -0.116632236777E+04   -0.60461E-02   -0.24018E-02  1464   0.247E-01    0.736E-01
RMM:  14    -0.116632524221E+04   -0.28744E-02   -0.16782E-02  1440   0.154E-01    0.358E-01
RMM:  15    -0.116632587430E+04   -0.63209E-03   -0.15673E-02  1440   0.153E-01    0.262E-01
RMM:  16    -0.116632482840E+04    0.10459E-02   -0.20176E-03  1439   0.547E-02    0.132E-01
RMM:  17    -0.116632472070E+04    0.10770E-03   -0.68441E-04  1207   0.315E-02    0.692E-02
RMM:  18    -0.116632475890E+04   -0.38198E-04   -0.13546E-04   916   0.158E-02
   1 F= -.11736215E+04 E0= -.11736200E+04  d E =-.117362E+04  mag=    -0.9666
       N       E                     dE             d eps       ncg     rms          rms(c)
DAV:   1    -0.116632328026E+04    0.14404E-02   -0.85753E-01  1548   0.156E+00    0.390E-01
RMM:   2    -0.116632450810E+04   -0.12278E-02   -0.19588E-02  1440   0.218E-01    0.363E-01
RMM:   3    -0.116632385075E+04    0.65736E-03   -0.13849E-03  1520   0.494E-02    0.311E-01
RMM:   4    -0.116632276168E+04    0.10891E-02   -0.64800E-03  1440   0.947E-02    0.837E-02
RMM:   5    -0.116632272050E+04    0.41179E-04   -0.17907E-04   935   0.209E-02
   2 F= -.11736199E+04 E0= -.11736183E+04  d E =0.158611E-02  mag=    -0.9646
       N       E                     dE             d eps       ncg     rms          rms(c)
DAV:   1    -0.116632667605E+04   -0.39144E-02   -0.30535E-01  1548   0.926E-01    0.222E-01
RMM:   2    -0.116632687085E+04   -0.19480E-03   -0.52442E-03  1440   0.117E-01    0.206E-01
RMM:   3    -0.116632652374E+04    0.34711E-03   -0.37796E-04  1063   0.279E-02    0.168E-01
RMM:   4    -0.116632610893E+04    0.41481E-03   -0.25096E-03  1440   0.599E-02    0.430E-02
RMM:   5    -0.116632609206E+04    0.16870E-04   -0.47753E-05   872   0.118E-02
   3 F= -.11736230E+04 E0= -.11736215E+04  d E =-.151126E-02  mag=    -0.9654
