       N       E                     dE             d eps       ncg     rms          rms(c)
DAV:   1     0.495886684464E+04    0.49589E+04   -0.17669E+05  1824   0.953E+02
DAV:   2    -0.209262474717E+02   -0.49798E+04   -0.45615E+04  2496   0.219E+02
DAV:   3    -0.119451768230E+04   -0.11736E+04   -0.11669E+04  1952   0.115E+02
DAV:   4    -0.124701775057E+04   -0.52500E+02   -0.52153E+02  1984   0.339E+01
DAV:   5    -0.124850702956E+04   -0.14893E+01   -0.14837E+01  2176   0.512E+00    0.721E+01
RMM:   6    -0.123286362284E+04    0.15643E+02   -0.10510E+01  1578   0.421E+00    0.542E+01
RMM:   7    -0.120860802275E+04    0.24256E+02   -0.10903E+02  1652   0.115E+01    0.461E+01
RMM:   8    -0.120514315187E+04    0.34649E+01   -0.90657E+00  1591   0.531E+00    0.416E+01
RMM:   9    -0.119840823537E+04    0.67349E+01   -0.32870E+00  1576   0.261E+00    0.345E+01
RMM:  10    -0.118500570003E+04    0.13403E+02   -0.15309E+01  1684   0.493E+00    0.240E+01
RMM:  11    -0.118400805242E+04    0.99765E+00   -0.16228E+01  1670   0.525E+00    0.231E+01
RMM:  12    -0.118719091457E+04   -0.31829E+01   -0.37986E+00  1792   0.278E+00    0.211E+01
RMM:  13    -0.118264618399E+04    0.45447E+01   -0.36194E+00  1704   0.228E+00    0.104E+01
RMM:  14    -0.118192288218E+04    0.72330E+00   -0.13849E+00  1666   0.122E+00    0.664E+00
RMM:  15    -0.118182228480E+04    0.10060E+00   -0.24999E-01  1743   0.618E-01    0.498E+00
RMM:  16    -0.118193473425E+04   -0.11245E+00   -0.34644E-01  1611   0.696E-01    0.688E+00
RMM:  17    -0.118184815994E+04    0.86574E-01   -0.42742E-02  1629   0.411E-01    0.565E+00
RMM:  18    -0.118170023236E+04    0.14793E+00   -0.26024E-01  1686   0.646E-01    0.345E+00
RMM:  19    -0.118163940906E+04    0.60823E-01   -0.83206E-02  1605   0.372E-01    0.281E+00
RMM:  20    -0.118169134921E+04   -0.51940E-01   -0.32773E-02  1690   0.256E-01    0.205E+00
RMM:  21    -0.118170373703E+04   -0.12388E-01   -0.18341E-02  1580   0.195E-01    0.259E+00
RMM:  22    -0.118171661719E+04   -0.12880E-01   -0.23292E-02  1658   0.211E-01    0.174E+00
RMM:  23    -0.118171578535E+04    0.83184E-03   -0.10498E-02  1720   0.122E-01    0.121E+00
RMM:  24    -0.118171022316E+04    0.55622E-02   -0.54288E-03  1694   0.966E-02    0.567E-01
RMM:  25    -0.118171141687E+04   -0.11937E-02   -0.10901E-03  1728   0.582E-02    0.476E-01
RMM:  26    -0.118171127606E+04    0.14082E-03   -0.63182E-04  1615   0.365E-02    0.344E-01
RMM:  27    -0.118171142976E+04   -0.15371E-03   -0.42511E-04  1647   0.277E-02    0.300E-01
RMM:  28    -0.118171128899E+04    0.14077E-03   -0.15664E-04  1635   0.192E-02    0.181E-01
RMM:  29    -0.118171126125E+04    0.27743E-04   -0.83222E-05  1634   0.127E-02    0.139E-01
RMM:  30    -0.118171132394E+04   -0.62688E-04   -0.93751E-05  1625   0.137E-02    0.907E-02
RMM:  31    -0.118171133669E+04   -0.12751E-04   -0.52954E-05  1623   0.928E-03    0.771E-02
RMM:  32    -0.118171136337E+04   -0.26677E-04   -0.22215E-05  1522   0.700E-03    0.425E-02
RMM:  33    -0.118171136586E+04   -0.24943E-05   -0.86635E-06  1413   0.433E-03    0.329E-02
RMM:  34    -0.118171136895E+04   -0.30950E-05   -0.45857E-06  1229   0.310E-03    0.176E-02
RMM:  35    -0.118171137083E+04   -0.18740E-05   -0.13665E-06  1050   0.208E-03    0.167E-02
RMM:  36    -0.118171137003E+04    0.80244E-06   -0.12400E-06  1038   0.173E-03
   1 F= -.11888564E+04 E0= -.11888564E+04  d E =-.118886E+04  mag=     1.0001
       N       E                     dE             d eps       ncg     rms          rms(c)
DAV:   1    -0.118170952682E+04    0.18440E-02   -0.43737E-01  1600   0.112E+00    0.170E-01
RMM:   2    -0.118171022618E+04   -0.69935E-03   -0.10407E-02  1555   0.175E-01    0.212E-01
RMM:   3    -0.118171036862E+04   -0.14245E-03   -0.24374E-03  1888   0.760E-02    0.182E-01
RMM:   4    -0.118171029292E+04    0.75705E-04   -0.32722E-04  1804   0.269E-02    0.180E-01
RMM:   5    -0.118171013601E+04    0.15691E-03   -0.48007E-04  1550   0.269E-02    0.124E-01
RMM:   6    -0.118171027001E+04   -0.13400E-03   -0.11093E-03  1552   0.398E-02    0.967E-02
RMM:   7    -0.118171022387E+04    0.46142E-04   -0.91463E-05  1576   0.177E-02    0.815E-02
RMM:   8    -0.118171019668E+04    0.27189E-04   -0.12377E-04  1569   0.134E-02    0.626E-02
RMM:   9    -0.118171020042E+04   -0.37400E-05   -0.15743E-05  1687   0.714E-03    0.545E-02
RMM:  10    -0.118171019761E+04    0.28080E-05   -0.10795E-05  1493   0.426E-03    0.468E-02
RMM:  11    -0.118171019348E+04    0.41264E-05   -0.92308E-06  1504   0.394E-03    0.381E-02
RMM:  12    -0.118171019322E+04    0.26855E-06   -0.12816E-06  1013   0.225E-03
   2 F= -.11888562E+04 E0= -.11888562E+04  d E =0.137598E-03  mag=     1.0000
       N       E                     dE             d eps       ncg     rms          rms(c)
DAV:   1    -0.118171159988E+04   -0.14064E-02   -0.11709E-01  1792   0.581E-01    0.910E-02
RMM:   2    -0.118171173336E+04   -0.13348E-03   -0.23344E-03  1549   0.880E-02    0.102E-01
RMM:   3    -0.118171174700E+04   -0.13641E-04   -0.46143E-04  1808   0.370E-02    0.845E-02
RMM:   4    -0.118171171445E+04    0.32549E-04   -0.84136E-05  1695   0.145E-02    0.794E-02
RMM:   5    -0.118171167177E+04    0.42683E-04   -0.24560E-04  1548   0.196E-02    0.378E-02
RMM:   6    -0.118171168576E+04   -0.13987E-04   -0.11027E-04  1614   0.140E-02    0.310E-02
RMM:   7    -0.118171167647E+04    0.92848E-05   -0.14078E-05  1526   0.658E-03    0.223E-02
RMM:   8    -0.118171167912E+04   -0.26429E-05   -0.20811E-05  1544   0.580E-03    0.118E-02
RMM:   9    -0.118171167910E+04    0.19085E-07   -0.27064E-06  1097   0.308E-03
   3 F= -.11888572E+04 E0= -.11888572E+04  d E =-.810055E-03  mag=     1.0000
       N       E                     dE             d eps       ncg     rms          rms(c)
DAV:   1    -0.118171171201E+04   -0.32892E-04   -0.21261E-01  1824   0.732E-01    0.121E-01
RMM:   2    -0.118171187399E+04   -0.16198E-03   -0.39508E-03  1536   0.104E-01    0.145E-01
RMM:   3    -0.118171187036E+04    0.36343E-05   -0.70307E-04  1761   0.435E-02    0.110E-01
RMM:   4    -0.118171189402E+04   -0.23662E-04   -0.13880E-04  1675   0.179E-02    0.109E-01
RMM:   5    -0.118171199017E+04   -0.96154E-04   -0.15194E-04  1537   0.168E-02    0.532E-02
RMM:   6    -0.118171203896E+04   -0.48791E-04   -0.87823E-05  1576   0.128E-02    0.428E-02
RMM:   7    -0.118171203734E+04    0.16220E-05   -0.13077E-05  1540   0.653E-03    0.280E-02
RMM:   8    -0.118171203930E+04   -0.19565E-05   -0.16505E-05  1494   0.485E-03    0.203E-02
RMM:   9    -0.118171203968E+04   -0.38273E-06   -0.24160E-06  1084   0.276E-03
   4 F= -.11888583E+04 E0= -.11888583E+04  d E =-.108783E-02  mag=     1.0000
       N       E                     dE             d eps       ncg     rms          rms(c)
DAV:   1    -0.118171178701E+04    0.25228E-03   -0.49130E-02  1664   0.353E-01    0.593E-02
RMM:   2    -0.118171183118E+04   -0.44166E-04   -0.91668E-04  1536   0.503E-02    0.776E-02
RMM:   3    -0.118171183138E+04   -0.19755E-06   -0.16372E-04  1771   0.209E-02    0.624E-02
RMM:   4    -0.118171183750E+04   -0.61273E-05   -0.30947E-05  1653   0.851E-03    0.639E-02
RMM:   5    -0.118171185113E+04   -0.13625E-04   -0.24188E-05  1543   0.679E-03    0.428E-02
RMM:   6    -0.118171187167E+04   -0.20540E-04   -0.38278E-05  1540   0.787E-03    0.335E-02
RMM:   7    -0.118171187138E+04    0.28904E-06   -0.40450E-06  1262   0.377E-03
   5 F= -.11888585E+04 E0= -.11888585E+04  d E =-.126835E-02  mag=     1.0000
       N       E                     dE             d eps       ncg     rms          rms(c)
DAV:   1    -0.118171204951E+04   -0.17784E-03   -0.14001E-01  1728   0.611E-01    0.101E-01
RMM:   2    -0.118171220644E+04   -0.15693E-03   -0.32656E-03  1536   0.862E-02    0.102E-01
RMM:   3    -0.118171220519E+04    0.12558E-05   -0.50975E-04  1765   0.347E-02    0.833E-02
RMM:   4    -0.118171224419E+04   -0.39006E-04   -0.90143E-05  1633   0.144E-02    0.741E-02
RMM:   5    -0.118171231265E+04   -0.68454E-04   -0.68372E-05  1559   0.119E-02    0.392E-02
RMM:   6    -0.118171235598E+04   -0.43330E-04   -0.59659E-05  1558   0.106E-02    0.238E-02
RMM:   7    -0.118171236055E+04   -0.45784E-05   -0.70828E-06  1503   0.545E-03    0.145E-02
RMM:   8    -0.118171236014E+04    0.41500E-06   -0.74514E-06  1421   0.354E-03
   6 F= -.11888594E+04 E0= -.11888594E+04  d E =-.939711E-03  mag=     1.0000
       N       E                     dE             d eps       ncg     rms          rms(c)
DAV:   1    -0.118171208970E+04    0.27085E-03   -0.12668E-01  1728   0.582E-01    0.945E-02
RMM:   2    -0.118171223239E+04   -0.14269E-03   -0.29489E-03  1536   0.820E-02    0.901E-02
RMM:   3    -0.118171223311E+04   -0.71723E-06   -0.46357E-04  1763   0.331E-02    0.732E-02
RMM:   4    -0.118171227004E+04   -0.36931E-04   -0.79614E-05  1627   0.135E-02    0.630E-02
RMM:   5    -0.118171233703E+04   -0.66988E-04   -0.74165E-05  1555   0.121E-02    0.292E-02
RMM:   6    -0.118171236676E+04   -0.29740E-04   -0.40083E-05  1593   0.894E-03    0.188E-02
RMM:   7    -0.118171237069E+04   -0.39223E-05   -0.56424E-06  1394   0.461E-03    0.104E-02
RMM:   8    -0.118171237083E+04   -0.14518E-06   -0.65932E-06  1388   0.331E-03
   7 F= -.11888598E+04 E0= -.11888598E+04  d E =-.137960E-02  mag=     1.0000
       N       E                     dE             d eps       ncg     rms          rms(c)
DAV:   1    -0.118171215863E+04    0.21206E-03   -0.28883E-02  1728   0.278E-01    0.451E-02
RMM:   2    -0.118171219446E+04   -0.35830E-04   -0.67196E-04  1536   0.391E-02    0.429E-02
RMM:   3    -0.118171219627E+04   -0.18112E-05   -0.10498E-04  1763   0.157E-02    0.349E-02
RMM:   4    -0.118171220460E+04   -0.83265E-05   -0.18738E-05  1612   0.646E-03    0.299E-02
RMM:   5    -0.118171221764E+04   -0.13043E-04   -0.16633E-05  1510   0.568E-03    0.138E-02
RMM:   6    -0.118171222443E+04   -0.67951E-05   -0.86528E-06  1496   0.420E-03    0.885E-03
RMM:   7    -0.118171222549E+04   -0.10514E-05   -0.14683E-06  1037   0.240E-03    0.462E-03
RMM:   8    -0.118171222560E+04   -0.11111E-06   -0.11844E-06  1016   0.166E-03
   8 F= -.11888599E+04 E0= -.11888599E+04  d E =-.143934E-02  mag=     1.0000
       N       E                     dE             d eps       ncg     rms          rms(c)
DAV:   1    -0.118171236486E+04   -0.13937E-03   -0.89841E-02  1728   0.477E-01    0.790E-02
RMM:   2    -0.118171245575E+04   -0.90890E-04   -0.20535E-03  1540   0.653E-02    0.655E-02
RMM:   3    -0.118171245984E+04   -0.40986E-05   -0.29773E-04  1718   0.256E-02    0.558E-02
RMM:   4    -0.118171250008E+04   -0.40231E-04   -0.54002E-05  1591   0.111E-02    0.418E-02
RMM:   5    -0.118171254500E+04   -0.44923E-04   -0.39307E-05  1548   0.913E-03    0.205E-02
RMM:   6    -0.118171255960E+04   -0.14600E-04   -0.13395E-05  1590   0.565E-03    0.120E-02
RMM:   7    -0.118171256329E+04   -0.36950E-05   -0.38445E-06  1171   0.341E-03    0.573E-03
RMM:   8    -0.118171256385E+04   -0.56039E-06   -0.15462E-06  1056   0.197E-03
   9 F= -.11888606E+04 E0= -.11888606E+04  d E =-.689516E-03  mag=     1.0000
       N       E                     dE             d eps       ncg     rms          rms(c)
DAV:   1    -0.118171210683E+04    0.45646E-03   -0.32213E-01  1664   0.904E-01    0.150E-01
RMM:   2    -0.118171246281E+04   -0.35598E-03   -0.73716E-03  1540   0.124E-01    0.124E-01
RMM:   3    -0.118171248157E+04   -0.18755E-04   -0.10661E-03  1706   0.484E-02    0.106E-01
RMM:   4    -0.118171257706E+04   -0.95488E-04   -0.19605E-04  1619   0.213E-02    0.794E-02
RMM:   5    -0.118171273971E+04   -0.16265E-03   -0.14787E-04  1548   0.176E-02    0.389E-02
RMM:   6    -0.118171279772E+04   -0.58013E-04   -0.51021E-05  1725   0.110E-02    0.228E-02
RMM:   7    -0.118171281069E+04   -0.12970E-04   -0.13756E-05  1481   0.578E-03    0.113E-02
RMM:   8    -0.118171281267E+04   -0.19811E-05   -0.59099E-06  1342   0.337E-03    0.768E-03
RMM:   9    -0.118171281314E+04   -0.46703E-06   -0.37124E-06  1255   0.264E-03
  10 F= -.11888615E+04 E0= -.11888615E+04  d E =-.160396E-02  mag=     1.0000
       N       E                     dE             d eps       ncg     rms          rms(c)
DAV:   1    -0.118170895212E+04    0.38606E-02   -0.12880E+00  1664   0.181E+00    0.299E-01
RMM:   2    -0.118171062873E+04   -0.16766E-02   -0.29496E-02  1540   0.247E-01    0.246E-01
RMM:   3    -0.118171077924E+04   -0.15050E-03   -0.42696E-03  1704   0.968E-02    0.211E-01
RMM:   4    -0.118171100557E+04   -0.22634E-03   -0.79703E-04  1621   0.425E-02    0.157E-01
RMM:   5    -0.118171148028E+04   -0.47471E-03   -0.57704E-04  1548   0.344E-02    0.776E-02
RMM:   6    -0.118171169422E+04   -0.21394E-03   -0.20231E-04  1749   0.215E-02    0.456E-02
RMM:   7    -0.118171174992E+04   -0.55702E-04   -0.56713E-05  1545   0.115E-02    0.225E-02
RMM:   8    -0.118171176041E+04   -0.10486E-04   -0.22530E-05  1522   0.661E-03    0.153E-02
RMM:   9    -0.118171176159E+04   -0.11792E-05   -0.16094E-05  1492   0.530E-03    0.741E-03
RMM:  10    -0.118171176260E+04   -0.10109E-05   -0.56741E-06  1304   0.324E-03    0.551E-03
RMM:  11    -0.118171176213E+04    0.47121E-06   -0.17027E-06  1054   0.232E-03
  11 F= -.11888618E+04 E0= -.11888618E+04  d E =-.188413E-02  mag=     1.0000
       N       E                     dE             d eps       ncg     rms          rms(c)
DAV:   1    -0.118171201207E+04   -0.24947E-03   -0.17590E-01  1664   0.668E-01    0.111E-01
RMM:   2    -0.118171220493E+04   -0.19286E-03   -0.40047E-03  1542   0.909E-02    0.915E-02
RMM:   3    -0.118171221654E+04   -0.11611E-04   -0.57830E-04  1709   0.355E-02    0.784E-02
RMM:   4    -0.118171227139E+04   -0.54843E-04   -0.10470E-04  1596   0.155E-02    0.587E-02
RMM:   5    -0.118171235120E+04   -0.79816E-04   -0.81171E-05  1546   0.130E-02    0.285E-02
RMM:   6    -0.118171237989E+04   -0.28687E-04   -0.27217E-05  1672   0.797E-03    0.167E-02
RMM:   7    -0.118171238672E+04   -0.68280E-05   -0.74237E-06  1356   0.443E-03    0.816E-03
RMM:   8    -0.118171238793E+04   -0.12183E-05   -0.31883E-06  1192   0.250E-03    0.559E-03
RMM:   9    -0.118171238816E+04   -0.22732E-06   -0.21137E-06  1112   0.208E-03
  12 F= -.11888619E+04 E0= -.11888619E+04  d E =-.201791E-02  mag=     1.0000
       N       E                     dE             d eps       ncg     rms          rms(c)
DAV:   1    -0.118171255782E+04   -0.16988E-03   -0.19302E-01  1600   0.650E-01    0.113E-01
RMM:   2    -0.118171266424E+04   -0.10642E-03   -0.35250E-03  1536   0.883E-02    0.952E-02
RMM:   3    -0.118171267208E+04   -0.78318E-05   -0.54874E-04  1695   0.367E-02    0.801E-02
RMM:   4    -0.118171276573E+04   -0.93655E-04   -0.13930E-04  1610   0.177E-02    0.493E-02
RMM:   5    -0.118171285810E+04   -0.92368E-04   -0.80734E-05  1545   0.131E-02    0.242E-02
RMM:   6    -0.118171286956E+04   -0.11458E-04   -0.18116E-05  1687   0.699E-03    0.162E-02
RMM:   7    -0.118171287123E+04   -0.16733E-05   -0.89873E-06  1391   0.397E-03    0.840E-03
RMM:   8    -0.118171287282E+04   -0.15899E-05   -0.35524E-06  1231   0.255E-03    0.506E-03
RMM:   9    -0.118171287274E+04    0.83703E-07   -0.18978E-06  1064   0.208E-03
  13 F= -.11888629E+04 E0= -.11888629E+04  d E =-.990251E-03  mag=     1.0000
       N       E                     dE             d eps       ncg     rms          rms(c)
DAV:   1    -0.118171043951E+04    0.24333E-02   -0.14228E+00  1536   0.176E+00    0.307E-01
RMM:   2    -0.118171152138E+04   -0.10819E-02   -0.26125E-02  1536   0.239E-01    0.258E-01
RMM:   3    -0.118171164930E+04   -0.12791E-03   -0.40900E-03  1698   0.995E-02    0.218E-01
RMM:   4    -0.118171209482E+04   -0.44552E-03   -0.10385E-03  1610   0.476E-02    0.135E-01
RMM:   5    -0.118171268629E+04   -0.59148E-03   -0.60679E-04  1545   0.352E-02    0.654E-02
RMM:   6    -0.118171276445E+04   -0.78160E-04   -0.13778E-04  1925   0.189E-02    0.445E-02
RMM:   7    -0.118171278306E+04   -0.18607E-04   -0.70703E-05  1538   0.104E-02    0.233E-02
RMM:   8    -0.118171279911E+04   -0.16050E-04   -0.26062E-05  1555   0.671E-03    0.138E-02
RMM:   9    -0.118171279859E+04    0.51652E-06   -0.13593E-05  1545   0.483E-03    0.832E-03
RMM:  10    -0.118171279925E+04   -0.65846E-06   -0.55187E-06  1339   0.325E-03
  14 F= -.11888642E+04 E0= -.11888642E+04  d E =-.228798E-02  mag=     1.0000
       N       E                     dE             d eps       ncg     rms          rms(c)
DAV:   1    -0.118171316286E+04   -0.36426E-03   -0.41713E-01  1600   0.907E-01    0.167E-01
RMM:   2    -0.118171327239E+04   -0.10953E-03   -0.65104E-03  1536   0.120E-01    0.146E-01
RMM:   3    -0.118171324951E+04    0.22881E-04   -0.97464E-04  1686   0.506E-02    0.124E-01
RMM:   4    -0.118171345414E+04   -0.20464E-03   -0.30202E-04  1595   0.258E-02    0.771E-02
RMM:   5    -0.118171365593E+04   -0.20178E-03   -0.20503E-04  1543   0.206E-02    0.343E-02
RMM:   6    -0.118171367846E+04   -0.22536E-04   -0.42284E-05  1870   0.107E-02    0.234E-02
RMM:   7    -0.118171368110E+04   -0.26330E-05   -0.23716E-05  1505   0.595E-03    0.126E-02
RMM:   8    -0.118171368546E+04   -0.43636E-05   -0.55455E-06  1338   0.333E-03    0.767E-03
RMM:   9    -0.118171368471E+04    0.75219E-06   -0.42453E-06  1294   0.278E-03
  15 F= -.11888657E+04 E0= -.11888657E+04  d E =-.150165E-02  mag=     1.0000
       N       E                     dE             d eps       ncg     rms          rms(c)
DAV:   1    -0.118171300726E+04    0.67820E-03   -0.73673E-01  1568   0.121E+00    0.222E-01
RMM:   2    -0.118171325828E+04   -0.25102E-03   -0.11555E-02  1536   0.160E-01    0.194E-01
RMM:   3    -0.118171323576E+04    0.22515E-04   -0.17333E-03  1685   0.676E-02    0.165E-01
RMM:   4    -0.118171353189E+04   -0.29613E-03   -0.53663E-04  1592   0.344E-02    0.103E-01
RMM:   5    -0.118171388638E+04   -0.35449E-03   -0.37868E-04  1543   0.278E-02    0.454E-02
RMM:   6    -0.118171392225E+04   -0.35871E-04   -0.78127E-05  1891   0.144E-02    0.315E-02
RMM:   7    -0.118171392562E+04   -0.33692E-05   -0.45500E-05  1532   0.818E-03    0.169E-02
RMM:   8    -0.118171393565E+04   -0.10031E-04   -0.10698E-05  1533   0.462E-03    0.102E-02
RMM:   9    -0.118171393441E+04    0.12414E-05   -0.70841E-06  1408   0.362E-03    0.642E-03
RMM:  10    -0.118171393487E+04   -0.45743E-06   -0.35783E-06  1236   0.256E-03
  16 F= -.11888668E+04 E0= -.11888668E+04  d E =-.256701E-02  mag=     1.0000
       N       E                     dE             d eps       ncg     rms          rms(c)
DAV:   1    -0.118171353638E+04    0.39803E-03   -0.12859E-01  1600   0.505E-01    0.929E-02
RMM:   2    -0.118171357731E+04   -0.40932E-04   -0.20388E-03  1536   0.669E-02    0.809E-02
RMM:   3    -0.118171357199E+04    0.53288E-05   -0.30313E-04  1686   0.283E-02    0.687E-02
RMM:   4    -0.118171362963E+04   -0.57643E-04   -0.95582E-05  1594   0.146E-02    0.422E-02
RMM:   5    -0.118171369038E+04   -0.60755E-04   -0.63490E-05  1542   0.116E-02    0.190E-02
RMM:   6    -0.118171369782E+04   -0.74413E-05   -0.12396E-05  1575   0.591E-03    0.131E-02
RMM:   7    -0.118171369945E+04   -0.16237E-05   -0.70974E-06  1354   0.347E-03    0.701E-03
RMM:   8    -0.118171370082E+04   -0.13686E-05   -0.17934E-06  1052   0.206E-03    0.424E-03
RMM:   9    -0.118171370063E+04    0.18397E-06   -0.14101E-06  1023   0.187E-03
  17 F= -.11888669E+04 E0= -.11888669E+04  d E =-.267229E-02  mag=     1.0000
       N       E                     dE             d eps       ncg     rms          rms(c)
DAV:   1    -0.118171397583E+04   -0.27502E-03   -0.45041E-01  1568   0.938E-01    0.175E-01
RMM:   2    -0.118171409348E+04   -0.11764E-03   -0.68647E-03  1536   0.123E-01    0.153E-01
RMM:   3    -0.118171408877E+04    0.47078E-05   -0.10578E-03  1652   0.523E-02    0.126E-01
RMM:   4    -0.118171433710E+04   -0.24833E-03   -0.35161E-04  1590   0.281E-02    0.715E-02
RMM:   5    -0.118171451026E+04   -0.17316E-03   -0.17159E-04  1550   0.195E-02    0.343E-02
RMM:   6    -0.118171452830E+04   -0.18037E-04   -0.36476E-05  1841   0.102E-02    0.237E-02
RMM:   7    -0.118171453277E+04   -0.44683E-05   -0.26996E-05  1506   0.617E-03    0.124E-02
RMM:   8    -0.118171453769E+04   -0.49245E-05   -0.40669E-06  1209   0.315E-03    0.780E-03
RMM:   9    -0.118171453700E+04    0.69389E-06   -0.62092E-06  1369   0.318E-03
  18 F= -.11888683E+04 E0= -.11888683E+04  d E =-.137334E-02  mag=     1.0000
       N       E                     dE             d eps       ncg     rms          rms(c)
DAV:   1    -0.118171407086E+04    0.46683E-03   -0.56699E-01  1536   0.106E+00    0.197E-01
RMM:   2    -0.118171424605E+04   -0.17518E-03   -0.88102E-03  1536   0.139E-01    0.172E-01
RMM:   3    -0.118171424519E+04    0.85098E-06   -0.13502E-03  1655   0.588E-02    0.141E-01
RMM:   4    -0.118171454152E+04   -0.29632E-03   -0.44538E-04  1589   0.315E-02    0.807E-02
RMM:   5    -0.118171476599E+04   -0.22447E-03   -0.22473E-04  1551   0.221E-02    0.386E-02
RMM:   6    -0.118171478734E+04   -0.21355E-04   -0.46527E-05  1868   0.115E-02    0.271E-02
RMM:   7    -0.118171479175E+04   -0.44068E-05   -0.36220E-05  1525   0.707E-03    0.141E-02
RMM:   8    -0.118171479880E+04   -0.70493E-05   -0.53542E-06  1319   0.360E-03    0.883E-03
RMM:   9    -0.118171479789E+04    0.91037E-06   -0.72839E-06  1389   0.343E-03
  19 F= -.11888691E+04 E0= -.11888691E+04  d E =-.223251E-02  mag=     1.0000
       N       E                     dE             d eps       ncg     rms          rms(c)
DAV:   1    -0.118171017001E+04    0.46288E-02   -0.22691E+00  1536   0.212E+00    0.394E-01
RMM:   2    -0.118171133827E+04   -0.11683E-02   -0.35438E-02  1536   0.279E-01    0.343E-01
RMM:   3    -0.118171142920E+04   -0.90931E-04   -0.55517E-03  1650   0.119E-01    0.283E-01
RMM:   4    -0.118171213706E+04   -0.70786E-03   -0.16396E-03  1598   0.614E-02    0.168E-01
RMM:   5    -0.118171300140E+04   -0.86434E-03   -0.96243E-04  1546   0.451E-02    0.763E-02
RMM:   6    -0.118171308981E+04   -0.88414E-04   -0.20336E-04  1897   0.237E-02    0.537E-02
RMM:   7    -0.118171308861E+04    0.12016E-05   -0.15572E-04  1541   0.147E-02    0.281E-02
RMM:   8    -0.118171311885E+04   -0.30236E-04   -0.20357E-05  1624   0.732E-03    0.180E-02
RMM:   9    -0.118171311439E+04    0.44555E-05   -0.33246E-05  1532   0.702E-03    0.107E-02
RMM:  10    -0.118171311547E+04   -0.10797E-05   -0.82266E-06  1452   0.397E-03    0.877E-03
RMM:  11    -0.118171311494E+04    0.53551E-06   -0.37083E-06  1158   0.288E-03
  20 F= -.11888686E+04 E0= -.11888686E+04  d E =-.173095E-02  mag=     1.0000
       N       E                     dE             d eps       ncg     rms          rms(c)
DAV:   1    -0.118171330299E+04   -0.18752E-03   -0.10828E+00  1536   0.147E+00    0.270E-01
RMM:   2    -0.118171367219E+04   -0.36920E-03   -0.15933E-02  1536   0.191E-01    0.237E-01
RMM:   3    -0.118171367643E+04   -0.42389E-05   -0.24891E-03  1656   0.810E-02    0.195E-01
RMM:   4    -0.118171412753E+04   -0.45110E-03   -0.83711E-04  1590   0.433E-02    0.110E-01
RMM:   5    -0.118171453804E+04   -0.41051E-03   -0.39980E-04  1559   0.297E-02    0.528E-02
RMM:   6    -0.118171457358E+04   -0.35539E-04   -0.84171E-05  1877   0.154E-02    0.362E-02
RMM:   7    -0.118171458160E+04   -0.80221E-05   -0.64220E-05  1539   0.941E-03    0.189E-02
RMM:   8    -0.118171459439E+04   -0.12790E-04   -0.90345E-06  1470   0.472E-03    0.121E-02
RMM:   9    -0.118171459282E+04    0.15667E-05   -0.15738E-05  1490   0.486E-03    0.714E-03
RMM:  10    -0.118171459325E+04   -0.43024E-06   -0.36132E-06  1171   0.286E-03
  21 F= -.11888693E+04 E0= -.11888693E+04  d E =-.239529E-02  mag=     1.0000
       N       E                     dE             d eps       ncg     rms          rms(c)
DAV:   1    -0.118171460621E+04   -0.13390E-04   -0.77250E-01  1536   0.122E+00    0.231E-01
RMM:   2    -0.118171486024E+04   -0.25403E-03   -0.11766E-02  1536   0.161E-01    0.209E-01
RMM:   3    -0.118171481756E+04    0.42676E-04   -0.18197E-03  1684   0.678E-02    0.181E-01
RMM:   4    -0.118171507838E+04   -0.26082E-03   -0.45403E-04  1609   0.332E-02    0.126E-01
RMM:   5    -0.118171551735E+04   -0.43897E-03   -0.46846E-04  1544   0.292E-02    0.425E-02
RMM:   6    -0.118171558340E+04   -0.66050E-04   -0.92785E-05  1848   0.150E-02    0.355E-02
RMM:   7    -0.118171557331E+04    0.10092E-04   -0.64603E-05  1531   0.974E-03    0.166E-02
RMM:   8    -0.118171558614E+04   -0.12832E-04   -0.10897E-05  1481   0.496E-03    0.119E-02
RMM:   9    -0.118171558607E+04    0.70788E-07   -0.45959E-06  1286   0.314E-03
  22 F= -.11888709E+04 E0= -.11888709E+04  d E =-.160156E-02  mag=     1.0000
       N       E                     dE             d eps       ncg     rms          rms(c)
DAV:   1    -0.118171498164E+04    0.60450E-03   -0.55208E-01  1536   0.103E+00    0.196E-01
RMM:   2    -0.118171513415E+04   -0.15251E-03   -0.84517E-03  1536   0.136E-01    0.177E-01
RMM:   3    -0.118171508928E+04    0.44866E-04   -0.13003E-03  1675   0.575E-02    0.154E-01
RMM:   4    -0.118171531070E+04   -0.22142E-03   -0.34998E-04  1608   0.290E-02    0.107E-01
RMM:   5    -0.118171563704E+04   -0.32633E-03   -0.33831E-04  1543   0.249E-02    0.376E-02
RMM:   6    -0.118171569133E+04   -0.54294E-04   -0.71553E-05  1851   0.132E-02    0.311E-02
RMM:   7    -0.118171568375E+04    0.75768E-05   -0.57416E-05  1527   0.902E-03    0.138E-02
RMM:   8    -0.118171569244E+04   -0.86829E-05   -0.74976E-06  1409   0.437E-03    0.103E-02
RMM:   9    -0.118171569234E+04    0.96337E-07   -0.36140E-06  1238   0.275E-03
  23 F= -.11888715E+04 E0= -.11888715E+04  d E =-.221686E-02  mag=     1.0000
       N       E                     dE             d eps       ncg     rms          rms(c)
DAV:   1    -0.118171618129E+04   -0.48885E-03   -0.36432E-01  1600   0.936E-01    0.163E-01
RMM:   2    -0.118171636876E+04   -0.18747E-03   -0.65676E-03  1536   0.127E-01    0.151E-01
RMM:   3    -0.118171632403E+04    0.44729E-04   -0.10384E-03  1744   0.515E-02    0.133E-01
RMM:   4    -0.118171641380E+04   -0.89764E-04   -0.19326E-04  1615   0.224E-02    0.104E-01
RMM:   5    -0.118171668693E+04   -0.27314E-03   -0.42327E-04  1550   0.271E-02    0.368E-02
RMM:   6    -0.118171671525E+04   -0.28320E-04   -0.67895E-05  1820   0.128E-02    0.314E-02
RMM:   7    -0.118171670600E+04    0.92573E-05   -0.40738E-05  1535   0.780E-03    0.173E-02
RMM:   8    -0.118171671562E+04   -0.96277E-05   -0.91965E-06  1519   0.463E-03    0.114E-02
RMM:   9    -0.118171671470E+04    0.92326E-06   -0.59797E-06  1396   0.349E-03
  24 F= -.11888729E+04 E0= -.11888729E+04  d E =-.143367E-02  mag=     1.0000
       N       E                     dE             d eps       ncg     rms          rms(c)
DAV:   1    -0.118171663742E+04    0.78208E-04   -0.12928E-01  1664   0.558E-01    0.970E-02
RMM:   2    -0.118171670869E+04   -0.71276E-04   -0.23309E-03  1536   0.759E-02    0.909E-02
RMM:   3    -0.118171669108E+04    0.17615E-04   -0.36801E-04  1736   0.308E-02    0.798E-02
RMM:   4    -0.118171672902E+04   -0.37945E-04   -0.72212E-05  1614   0.137E-02    0.622E-02
RMM:   5    -0.118171681562E+04   -0.86598E-04   -0.15581E-04  1547   0.164E-02    0.227E-02
RMM:   6    -0.118171682663E+04   -0.11016E-04   -0.26860E-05  1795   0.798E-03    0.194E-02
RMM:   7    -0.118171682249E+04    0.41427E-05   -0.15904E-05  1483   0.488E-03    0.111E-02
RMM:   8    -0.118171682654E+04   -0.40439E-05   -0.40397E-06  1289   0.301E-03    0.697E-03
RMM:   9    -0.118171682616E+04    0.37499E-06   -0.24045E-06  1098   0.238E-03
  25 F= -.11888733E+04 E0= -.11888733E+04  d E =-.178994E-02  mag=     1.0000
       N       E                     dE             d eps       ncg     rms          rms(c)
DAV:   1    -0.118171672472E+04    0.10181E-03   -0.25429E-02  1728   0.247E-01    0.431E-02
RMM:   2    -0.118171673675E+04   -0.12028E-04   -0.45932E-04  1536   0.336E-02    0.405E-02
RMM:   3    -0.118171673582E+04    0.92715E-06   -0.72275E-05  1732   0.136E-02    0.355E-02
RMM:   4    -0.118171674283E+04   -0.70084E-05   -0.14492E-05  1579   0.612E-03    0.276E-02
RMM:   5    -0.118171676005E+04   -0.17219E-04   -0.31345E-05  1545   0.739E-03    0.102E-02
RMM:   6    -0.118171676228E+04   -0.22284E-05   -0.51946E-06  1333   0.364E-03    0.854E-03
RMM:   7    -0.118171676146E+04    0.81595E-06   -0.27681E-06  1185   0.245E-03
  26 F= -.11888733E+04 E0= -.11888733E+04  d E =-.183372E-02  mag=     1.0000
       N       E                     dE             d eps       ncg     rms          rms(c)
DAV:   1    -0.118171660865E+04    0.15363E-03   -0.34104E-01  1600   0.985E-01    0.162E-01
RMM:   2    -0.118171708134E+04   -0.47269E-03   -0.88547E-03  1536   0.137E-01    0.136E-01
RMM:   3    -0.118171711056E+04   -0.29225E-04   -0.13140E-03  1715   0.533E-02    0.117E-01
RMM:   4    -0.118171724148E+04   -0.13091E-03   -0.24482E-04  1608   0.240E-02    0.799E-02
RMM:   5    -0.118171741109E+04   -0.16961E-03   -0.20839E-04  1548   0.207E-02    0.363E-02
RMM:   6    -0.118171743237E+04   -0.21282E-04   -0.40764E-05  1839   0.105E-02    0.268E-02
RMM:   7    -0.118171743972E+04   -0.73513E-05   -0.15377E-05  1492   0.560E-03    0.140E-02
RMM:   8    -0.118171744324E+04   -0.35160E-05   -0.44839E-06  1258   0.318E-03    0.936E-03
RMM:   9    -0.118171744260E+04    0.63216E-06   -0.64206E-06  1371   0.333E-03
  27 F= -.11888745E+04 E0= -.11888745E+04  d E =-.116909E-02  mag=     1.0000
       N       E                     dE             d eps       ncg     rms          rms(c)
DAV:   1    -0.118171703466E+04    0.40858E-03   -0.20221E-01  1600   0.758E-01    0.125E-01
RMM:   2    -0.118171731884E+04   -0.28418E-03   -0.52395E-03  1536   0.106E-01    0.105E-01
RMM:   3    -0.118171733260E+04   -0.13759E-04   -0.77806E-04  1711   0.410E-02    0.906E-02
RMM:   4    -0.118171741612E+04   -0.83520E-04   -0.14975E-04  1606   0.188E-02    0.614E-02
RMM:   5    -0.118171750609E+04   -0.89969E-04   -0.12683E-04  1547   0.161E-02    0.282E-02
RMM:   6    -0.118171751893E+04   -0.12843E-04   -0.25361E-05  1778   0.827E-03    0.210E-02
RMM:   7    -0.118171752292E+04   -0.39872E-05   -0.97305E-06  1425   0.457E-03    0.110E-02
RMM:   8    -0.118171752509E+04   -0.21720E-05   -0.30037E-06  1163   0.262E-03    0.727E-03
RMM:   9    -0.118171752473E+04    0.35609E-06   -0.39934E-06  1310   0.269E-03
  28 F= -.11888750E+04 E0= -.11888750E+04  d E =-.162695E-02  mag=     1.0000
       N       E                     dE             d eps       ncg     rms          rms(c)
DAV:   1    -0.118171457754E+04    0.29476E-02   -0.80830E-01  1600   0.152E+00    0.249E-01
RMM:   2    -0.118171573757E+04   -0.11600E-02   -0.20913E-02  1536   0.211E-01    0.210E-01
RMM:   3    -0.118171583119E+04   -0.93617E-04   -0.31132E-03  1710   0.819E-02    0.180E-01
RMM:   4    -0.118171603841E+04   -0.20722E-03   -0.59192E-04  1606   0.372E-02    0.122E-01
RMM:   5    -0.118171646089E+04   -0.42248E-03   -0.52142E-04  1548   0.325E-02    0.529E-02
RMM:   6    -0.118171650779E+04   -0.46899E-04   -0.92332E-05  1848   0.161E-02    0.395E-02
RMM:   7    -0.118171652203E+04   -0.14241E-04   -0.30478E-05  1534   0.795E-03    0.217E-02
RMM:   8    -0.118171652753E+04   -0.54977E-05   -0.10794E-05  1512   0.476E-03    0.145E-02
RMM:   9    -0.118171652653E+04    0.99769E-06   -0.15799E-05  1496   0.503E-03    0.683E-03
RMM:  10    -0.118171652696E+04   -0.43221E-06   -0.40670E-06  1232   0.301E-03
  29 F= -.11888747E+04 E0= -.11888747E+04  d E =-.138125E-02  mag=     1.0000
       N       E                     dE             d eps       ncg     rms          rms(c)
DAV:   1    -0.118171651136E+04    0.15170E-04   -0.36645E-01  1600   0.102E+00    0.168E-01
RMM:   2    -0.118171702566E+04   -0.51430E-03   -0.94124E-03  1536   0.143E-01    0.141E-01
RMM:   3    -0.118171704554E+04   -0.19882E-04   -0.14136E-03  1714   0.554E-02    0.122E-01
RMM:   4    -0.118171716496E+04   -0.11942E-03   -0.25718E-04  1606   0.247E-02    0.841E-02
RMM:   5    -0.118171733232E+04   -0.16735E-03   -0.22227E-04  1553   0.214E-02    0.401E-02
RMM:   6    -0.118171735924E+04   -0.26927E-04   -0.49022E-05  1841   0.112E-02    0.280E-02
RMM:   7    -0.118171736641E+04   -0.71650E-05   -0.18103E-05  1506   0.604E-03    0.145E-02
RMM:   8    -0.118171737065E+04   -0.42410E-05   -0.49842E-06  1281   0.339E-03    0.974E-03
RMM:   9    -0.118171736969E+04    0.96097E-06   -0.64347E-06  1373   0.337E-03
  30 F= -.11888750E+04 E0= -.11888750E+04  d E =-.171758E-02  mag=     1.0000
       N       E                     dE             d eps       ncg     rms          rms(c)
DAV:   1    -0.118171623812E+04    0.11325E-02   -0.51768E-01  1600   0.125E+00    0.206E-01
RMM:   2    -0.118171733354E+04   -0.10954E-02   -0.16647E-02  1536   0.180E-01    0.182E-01
RMM:   3    -0.118171743390E+04   -0.10036E-03   -0.25193E-03  1742   0.682E-02    0.155E-01
RMM:   4    -0.118171753051E+04   -0.96606E-04   -0.32292E-04  1648   0.265E-02    0.130E-01
RMM:   5    -0.118171778602E+04   -0.25551E-03   -0.30558E-04  1558   0.250E-02    0.622E-02
RMM:   6    -0.118171787756E+04   -0.91539E-04   -0.11751E-04  1669   0.161E-02    0.394E-02
RMM:   7    -0.118171790298E+04   -0.25426E-04   -0.21250E-05  1600   0.824E-03    0.205E-02
RMM:   8    -0.118171790769E+04   -0.47104E-05   -0.12281E-05  1485   0.505E-03    0.124E-02
RMM:   9    -0.118171790845E+04   -0.76114E-06   -0.67958E-06  1427   0.360E-03
  31 F= -.11888762E+04 E0= -.11888762E+04  d E =-.120338E-02  mag=     1.0000
