       N       E                     dE             d eps       ncg     rms          rms(c)
DAV:   1     0.507500759345E+04    0.50750E+04   -0.17441E+05  1836   0.924E+02
DAV:   2    -0.181829474800E+02   -0.50932E+04   -0.46857E+04  2556   0.214E+02
DAV:   3    -0.118210002259E+04   -0.11639E+04   -0.11578E+04  2088   0.114E+02
DAV:   4    -0.124076072299E+04   -0.58661E+02   -0.58328E+02  2016   0.347E+01
DAV:   5    -0.124345208806E+04   -0.26914E+01   -0.26843E+01  2376   0.695E+00    0.610E+01
RMM:   6    -0.123059422102E+04    0.12858E+02   -0.72964E+00  1722   0.335E+00    0.496E+01
RMM:   7    -0.119125026011E+04    0.39344E+02   -0.55334E+01  1816   0.971E+00    0.295E+01
RMM:   8    -0.118122073745E+04    0.10030E+02   -0.15915E+01  1769   0.850E+00    0.222E+01
RMM:   9    -0.117834116719E+04    0.28796E+01   -0.31275E+01  1769   0.784E+00    0.102E+01
RMM:  10    -0.117920685210E+04   -0.86568E+00   -0.45612E+00  1785   0.766E+00    0.832E+00
RMM:  11    -0.117845024850E+04    0.75660E+00   -0.11108E+00  1937   0.167E+00    0.445E+00
RMM:  12    -0.117824042445E+04    0.20982E+00   -0.73259E-01  1698   0.128E+00    0.162E+00
RMM:  13    -0.117820795839E+04    0.32466E-01   -0.19053E-01  1793   0.119E+00    0.724E-01
RMM:  14    -0.117820747449E+04    0.48391E-03   -0.93287E-02  1872   0.379E-01    0.487E-01
RMM:  15    -0.117820434675E+04    0.31277E-02   -0.80891E-03  1766   0.235E-01    0.399E-01
RMM:  16    -0.117820432144E+04    0.25301E-04   -0.40038E-03  1741   0.106E-01    0.331E-01
RMM:  17    -0.117820427858E+04    0.42863E-04   -0.13687E-03  1639   0.795E-02    0.220E-01
RMM:  18    -0.117820441655E+04   -0.13797E-03   -0.34515E-04  1261   0.559E-02    0.135E-01
RMM:  19    -0.117820446569E+04   -0.49138E-04   -0.19939E-04  1109   0.352E-02
   1 F= -.11852820E+04 E0= -.11852820E+04  d E =-.118528E+04  mag=     2.0007
       N       E                     dE             d eps       ncg     rms          rms(c)
DAV:   1    -0.117820476005E+04   -0.34350E-03   -0.48696E-01  1764   0.109E+00    0.231E-01
RMM:   2    -0.117820578961E+04   -0.10296E-02   -0.16264E-02  1882   0.175E-01    0.202E-01
RMM:   3    -0.117820553306E+04    0.25655E-03   -0.12311E-03  1447   0.101E-01    0.170E-01
RMM:   4    -0.117820539859E+04    0.13447E-03   -0.10546E-03  1606   0.583E-02    0.732E-02
RMM:   5    -0.117820549767E+04   -0.99078E-04   -0.41157E-04  1298   0.660E-02
   2 F= -.11852832E+04 E0= -.11852832E+04  d E =-.115170E-02  mag=     2.0000
       N       E                     dE             d eps       ncg     rms          rms(c)
DAV:   1    -0.117820583661E+04   -0.43802E-03   -0.34236E-02  1836   0.292E-01    0.599E-02
RMM:   2    -0.117820590283E+04   -0.66223E-04   -0.94559E-04  1337   0.410E-02
   3 F= -.11852835E+04 E0= -.11852835E+04  d E =-.152448E-02  mag=     2.0000
       N       E                     dE             d eps       ncg     rms          rms(c)
DAV:   1    -0.117820652566E+04   -0.68905E-03   -0.40974E-02  1800   0.288E-01    0.465E-02
RMM:   2    -0.117820660708E+04   -0.81416E-04   -0.96546E-04  1288   0.390E-02
   4 F= -.11852844E+04 E0= -.11852844E+04  d E =-.801820E-03  mag=     2.0000
       N       E                     dE             d eps       ncg     rms          rms(c)
DAV:   1    -0.117820769201E+04   -0.11663E-02   -0.36665E-01  1800   0.850E-01    0.201E-01
RMM:   2    -0.117820803440E+04   -0.34239E-03   -0.98905E-03  1726   0.124E-01    0.171E-01
RMM:   3    -0.117820789709E+04    0.13731E-03   -0.73259E-04  1329   0.836E-02    0.140E-01
RMM:   4    -0.117820810966E+04   -0.21257E-03   -0.74918E-04  1522   0.422E-02    0.599E-02
RMM:   5    -0.117820822556E+04   -0.11590E-03   -0.19421E-04  1093   0.558E-02    0.372E-02
RMM:   6    -0.117820827230E+04   -0.46738E-04   -0.72249E-05  1020   0.176E-02
   5 F= -.11852863E+04 E0= -.11852863E+04  d E =-.276241E-02  mag=     2.0000
       N       E                     dE             d eps       ncg     rms          rms(c)
DAV:   1    -0.117820920925E+04   -0.98369E-03   -0.29775E-02  1800   0.284E-01    0.529E-02
RMM:   2    -0.117820925275E+04   -0.43498E-04   -0.82732E-04  1406   0.439E-02
   6 F= -.11852874E+04 E0= -.11852874E+04  d E =-.110114E-02  mag=     2.0000
       N       E                     dE             d eps       ncg     rms          rms(c)
DAV:   1    -0.117820958043E+04   -0.37119E-03   -0.57937E-02  1764   0.397E-01    0.112E-01
RMM:   2    -0.117820960648E+04   -0.26046E-04   -0.18162E-03  1591   0.621E-02    0.101E-01
RMM:   3    -0.117820953516E+04    0.71319E-04   -0.23039E-04  1089   0.595E-02
   7 F= -.11852879E+04 E0= -.11852879E+04  d E =-.155278E-02  mag=     2.0000
       N       E                     dE             d eps       ncg     rms          rms(c)
DAV:   1    -0.117821020583E+04   -0.59935E-03   -0.43022E-02  1728   0.298E-01    0.745E-02
RMM:   2    -0.117821019874E+04    0.70938E-05   -0.11132E-03  1284   0.462E-02    0.692E-02
RMM:   3    -0.117821018843E+04    0.10307E-04   -0.13502E-04  1010   0.370E-02
   8 F= -.11852887E+04 E0= -.11852887E+04  d E =-.820044E-03  mag=     2.0000
       N       E                     dE             d eps       ncg     rms          rms(c)
DAV:   1    -0.117821054223E+04   -0.34350E-03   -0.22884E-01  1728   0.678E-01    0.166E-01
RMM:   2    -0.117821076850E+04   -0.22626E-03   -0.68386E-03  1778   0.114E-01    0.159E-01
RMM:   3    -0.117821066158E+04    0.10692E-03   -0.39906E-04  1155   0.605E-02    0.145E-01
RMM:   4    -0.117821067414E+04   -0.12560E-04   -0.38199E-04  1280   0.327E-02
   9 F= -.11852896E+04 E0= -.11852896E+04  d E =-.168809E-02  mag=     2.0000
       N       E                     dE             d eps       ncg     rms          rms(c)
DAV:   1    -0.117821175378E+04   -0.10922E-02   -0.90330E-02  1728   0.422E-01    0.104E-01
RMM:   2    -0.117821174376E+04    0.10026E-04   -0.19708E-03  1571   0.601E-02    0.879E-02
RMM:   3    -0.117821173144E+04    0.12314E-04   -0.22986E-04  1045   0.625E-02
  10 F= -.11852907E+04 E0= -.11852907E+04  d E =-.118928E-02  mag=     2.0000
       N       E                     dE             d eps       ncg     rms          rms(c)
DAV:   1    -0.117821200645E+04   -0.26270E-03   -0.39180E-01  1584   0.870E-01    0.202E-01
RMM:   2    -0.117821228673E+04   -0.28028E-03   -0.94785E-03  1828   0.148E-01    0.176E-01
RMM:   3    -0.117821224180E+04    0.44931E-04   -0.11674E-03  1329   0.825E-02    0.147E-01
RMM:   4    -0.117821235689E+04   -0.11508E-03   -0.45429E-04  1316   0.413E-02    0.777E-02
RMM:   5    -0.117821257725E+04   -0.22037E-03   -0.33523E-04  1166   0.494E-02    0.292E-02
RMM:   6    -0.117821260634E+04   -0.29091E-04   -0.11735E-04  1046   0.330E-02
  11 F= -.11852919E+04 E0= -.11852919E+04  d E =-.234019E-02  mag=     2.0000
       N       E                     dE             d eps       ncg     rms          rms(c)
DAV:   1    -0.117821311430E+04   -0.53705E-03   -0.21744E-02  1728   0.206E-01    0.461E-02
RMM:   2    -0.117821308853E+04    0.25765E-04   -0.49122E-04  1111   0.289E-02
  12 F= -.11852925E+04 E0= -.11852925E+04  d E =-.560982E-03  mag=     2.0000
       N       E                     dE             d eps       ncg     rms          rms(c)
DAV:   1    -0.117821415347E+04   -0.10392E-02   -0.19516E-01  1584   0.613E-01    0.152E-01
RMM:   2    -0.117821419815E+04   -0.44684E-04   -0.49187E-03  1660   0.956E-02    0.132E-01
RMM:   3    -0.117821420646E+04   -0.83031E-05   -0.44598E-04  1134   0.652E-02
  13 F= -.11852938E+04 E0= -.11852938E+04  d E =-.191563E-02  mag=     2.0000
       N       E                     dE             d eps       ncg     rms          rms(c)
DAV:   1    -0.117821480909E+04   -0.61094E-03   -0.76820E-01  1584   0.122E+00    0.284E-01
RMM:   2    -0.117821558872E+04   -0.77962E-03   -0.18364E-02  1859   0.186E-01    0.247E-01
RMM:   3    -0.117821560923E+04   -0.20517E-04   -0.19851E-03  1402   0.102E-01    0.204E-01
RMM:   4    -0.117821601865E+04   -0.40941E-03   -0.60179E-04  1264   0.493E-02    0.110E-01
RMM:   5    -0.117821650029E+04   -0.48164E-03   -0.42035E-04  1214   0.469E-02    0.432E-02
RMM:   6    -0.117821653005E+04   -0.29761E-04   -0.11849E-04  1082   0.360E-02
  14 F= -.11852966E+04 E0= -.11852966E+04  d E =-.471399E-02  mag=     2.0000
       N       E                     dE             d eps       ncg     rms          rms(c)
DAV:   1    -0.117821773494E+04   -0.12347E-02   -0.41777E-02  1692   0.331E-01    0.611E-02
RMM:   2    -0.117821775717E+04   -0.22228E-04   -0.10200E-03  1508   0.510E-02    0.565E-02
RMM:   3    -0.117821774544E+04    0.11734E-04   -0.15842E-04  1009   0.552E-02
  15 F= -.11852979E+04 E0= -.11852979E+04  d E =-.132304E-02  mag=     2.0000
       N       E                     dE             d eps       ncg     rms          rms(c)
DAV:   1    -0.117821829277E+04   -0.53560E-03   -0.32145E-01  1584   0.922E-01    0.181E-01
RMM:   2    -0.117821864911E+04   -0.35635E-03   -0.85187E-03  1901   0.159E-01    0.163E-01
RMM:   3    -0.117821851056E+04    0.13856E-03   -0.99693E-04  1335   0.793E-02    0.143E-01
RMM:   4    -0.117821833655E+04    0.17401E-03   -0.82323E-04  1595   0.502E-02    0.690E-02
RMM:   5    -0.117821844956E+04   -0.11300E-03   -0.46493E-04  1350   0.678E-02    0.356E-02
RMM:   6    -0.117821847646E+04   -0.26907E-04   -0.15846E-04  1078   0.302E-02
  16 F= -.11852990E+04 E0= -.11852990E+04  d E =-.235955E-02  mag=     2.0000
       N       E                     dE             d eps       ncg     rms          rms(c)
DAV:   1    -0.117821970772E+04   -0.12582E-02   -0.83012E-02  1728   0.476E-01    0.729E-02
RMM:   2    -0.117821982771E+04   -0.11999E-03   -0.19350E-03  1612   0.740E-02    0.705E-02
RMM:   3    -0.117821982339E+04    0.43189E-05   -0.30606E-04  1189   0.833E-02
  17 F= -.11853003E+04 E0= -.11853003E+04  d E =-.135233E-02  mag=     2.0000
       N       E                     dE             d eps       ncg     rms          rms(c)
DAV:   1    -0.117821977748E+04    0.50237E-04   -0.20633E-03  1872   0.757E-02    0.523E-02
RMM:   2    -0.117821976302E+04    0.14455E-04   -0.43401E-05   953   0.119E-02
  18 F= -.11853003E+04 E0= -.11853003E+04  d E =-.129299E-02  mag=     2.0000
