       N       E                     dE             d eps       ncg     rms          rms(c)
DAV:   1     0.487027894021E+04    0.48703E+04   -0.17509E+05  1872   0.912E+02
DAV:   2    -0.551006623790E+02   -0.49254E+04   -0.44954E+04  2520   0.210E+02
DAV:   3    -0.119048709564E+04   -0.11354E+04   -0.11285E+04  2124   0.111E+02
DAV:   4    -0.123756056180E+04   -0.47073E+02   -0.46832E+02  2088   0.294E+01
DAV:   5    -0.123879193198E+04   -0.12314E+01   -0.12286E+01  2412   0.456E+00    0.994E+01
RMM:   6    -0.123903994179E+04   -0.24801E+00   -0.20464E+02  1850   0.175E+01    0.968E+01
RMM:   7    -0.121835424928E+04    0.20686E+02   -0.10648E+01  1601   0.456E+00    0.725E+01
RMM:   8    -0.118543929319E+04    0.32915E+02   -0.33878E+01  1595   0.736E+00    0.347E+01
RMM:   9    -0.117640298026E+04    0.90363E+01   -0.71219E+00  1591   0.356E+00    0.297E+01
RMM:  10    -0.116062224404E+04    0.15781E+02   -0.44119E+01  1584   0.789E+00    0.175E+01
RMM:  11    -0.116109128918E+04   -0.46905E+00   -0.12562E+01  1608   0.471E+00    0.860E+00
RMM:  12    -0.116127657014E+04   -0.18528E+00   -0.71115E-01  1746   0.125E+00    0.766E+00
RMM:  13    -0.116054351970E+04    0.73305E+00   -0.13168E+00  1619   0.146E+00    0.358E+00
RMM:  14    -0.116038384127E+04    0.15968E+00   -0.39489E-01  1604   0.661E-01    0.178E+00
RMM:  15    -0.116035498466E+04    0.28857E-01   -0.15324E-01  1598   0.462E-01    0.120E+00
RMM:  16    -0.116033650010E+04    0.18485E-01   -0.61433E-02  1656   0.318E-01    0.369E-01
RMM:  17    -0.116033639430E+04    0.10580E-03   -0.55251E-03  1603   0.103E-01    0.292E-01
RMM:  18    -0.116033605750E+04    0.33679E-03   -0.22212E-03  1605   0.591E-02    0.169E-01
RMM:  19    -0.116033624517E+04   -0.18766E-03   -0.42839E-04  1266   0.309E-02    0.101E-01
RMM:  20    -0.116033628126E+04   -0.36094E-04   -0.50412E-04  1317   0.264E-02
   1 F= -.11673034E+04 E0= -.11672953E+04  d E =-.116730E+04  mag=    -0.7117
       N       E                     dE             d eps       ncg     rms          rms(c)
DAV:   1    -0.116033529019E+04    0.95497E-03   -0.41819E-01  1728   0.115E+00    0.193E-01
RMM:   2    -0.116033648011E+04   -0.11899E-02   -0.16414E-02  1681   0.197E-01    0.183E-01
RMM:   3    -0.116033622805E+04    0.25206E-03   -0.98834E-04  1543   0.481E-02    0.177E-01
RMM:   4    -0.116033558707E+04    0.64098E-03   -0.70399E-04  1555   0.317E-02    0.119E-01
RMM:   5    -0.116033528319E+04    0.30388E-03   -0.18316E-03  1584   0.496E-02    0.445E-02
RMM:   6    -0.116033525139E+04    0.31795E-04   -0.85446E-05  1011   0.148E-02
   2 F= -.11673026E+04 E0= -.11672950E+04  d E =0.844786E-03  mag=    -0.7334
       N       E                     dE             d eps       ncg     rms          rms(c)
DAV:   1    -0.116033705941E+04   -0.17762E-02   -0.15040E-01  1584   0.687E-01    0.108E-01
RMM:   2    -0.116033736824E+04   -0.30883E-03   -0.49234E-03  1663   0.113E-01    0.105E-01
RMM:   3    -0.116033727731E+04    0.90936E-04   -0.23012E-04  1154   0.251E-02
   3 F= -.11673045E+04 E0= -.11672969E+04  d E =-.106851E-02  mag=    -0.7342
       N       E                     dE             d eps       ncg     rms          rms(c)
DAV:   1    -0.116033706882E+04    0.29943E-03   -0.28981E-01  1836   0.130E+00    0.293E-01
RMM:   2    -0.116033840429E+04   -0.13355E-02   -0.24850E-02  1708   0.197E-01    0.258E-01
RMM:   3    -0.116033685881E+04    0.15455E-02   -0.11990E-03  1553   0.462E-02    0.217E-01
RMM:   4    -0.116033500774E+04    0.18511E-02   -0.70563E-03  1586   0.934E-02    0.649E-02
RMM:   5    -0.116033499045E+04    0.17283E-04   -0.14803E-04  1066   0.199E-02
   4 F= -.11673020E+04 E0= -.11672944E+04  d E =0.254703E-02  mag=    -0.7369
       N       E                     dE             d eps       ncg     rms          rms(c)
DAV:   1    -0.116033715679E+04   -0.21491E-02   -0.18129E-01  1728   0.103E+00    0.172E-01
RMM:   2    -0.116033830734E+04   -0.11506E-02   -0.15592E-02  1703   0.155E-01    0.142E-01
RMM:   3    -0.116033768952E+04    0.61782E-03   -0.53601E-04  1183   0.337E-02    0.122E-01
RMM:   4    -0.116033706296E+04    0.62656E-03   -0.21435E-03  1586   0.519E-02    0.387E-02
RMM:   5    -0.116033706700E+04   -0.40368E-05   -0.11345E-04  1038   0.159E-02
   5 F= -.11673042E+04 E0= -.11672967E+04  d E =0.265947E-03  mag=    -0.7365
