       N       E                     dE             d eps       ncg     rms          rms(c)
DAV:   1     0.467717868675E+04    0.46772E+04   -0.17139E+05  1872   0.903E+02
DAV:   2    -0.101079174791E+03   -0.47783E+04   -0.43443E+04  2520   0.205E+02
DAV:   3    -0.117921304065E+04   -0.10781E+04   -0.10735E+04  2124   0.107E+02
DAV:   4    -0.122212093541E+04   -0.42908E+02   -0.42678E+02  2016   0.278E+01
DAV:   5    -0.122322658216E+04   -0.11056E+01   -0.11027E+01  2340   0.410E+00    0.630E+01
RMM:   6    -0.120695747579E+04    0.16269E+02   -0.16642E+01  1584   0.419E+00    0.503E+01
RMM:   7    -0.118665086813E+04    0.20307E+02   -0.16036E+01  1584   0.464E+00    0.374E+01
RMM:   8    -0.116189344032E+04    0.24757E+02   -0.37406E+01  1584   0.699E+00    0.241E+01
RMM:   9    -0.115919415211E+04    0.26993E+01   -0.40844E+01  1584   0.724E+00    0.888E+00
RMM:  10    -0.115887015732E+04    0.32399E+00   -0.87182E-01  1633   0.128E+00    0.683E+00
RMM:  11    -0.115827522841E+04    0.59493E+00   -0.29157E+00  1584   0.187E+00    0.169E+00
RMM:  12    -0.115818696900E+04    0.88259E-01   -0.24534E-01  1584   0.512E-01    0.127E+00
RMM:  13    -0.115815690557E+04    0.30063E-01   -0.41070E-02  1584   0.228E-01    0.745E-01
RMM:  14    -0.115814704130E+04    0.98643E-02   -0.51614E-02  1584   0.255E-01    0.277E-01
RMM:  15    -0.115814622704E+04    0.81426E-03   -0.67331E-03  1622   0.964E-02    0.182E-01
RMM:  16    -0.115814699797E+04   -0.77093E-03   -0.13435E-03  1589   0.442E-02    0.138E-01
RMM:  17    -0.115814675582E+04    0.24215E-03   -0.13204E-03  1576   0.419E-02    0.707E-02
RMM:  18    -0.115814679699E+04   -0.41171E-04   -0.62975E-05  1029   0.103E-02
   1 F= -.11651932E+04 E0= -.11651932E+04  d E =-.116519E+04  mag=    -0.0055
       N       E                     dE             d eps       ncg     rms          rms(c)
DAV:   1    -0.115814311254E+04    0.36433E-02   -0.25720E+00  1800   0.236E+00    0.620E-01
RMM:   2    -0.115814784366E+04   -0.47311E-02   -0.60495E-02  1584   0.324E-01    0.577E-01
RMM:   3    -0.115814717034E+04    0.67332E-03   -0.37977E-03  1674   0.696E-02    0.521E-01
RMM:   4    -0.115814496966E+04    0.22007E-02   -0.77450E-03  1584   0.988E-02    0.206E-01
RMM:   5    -0.115814517914E+04   -0.20947E-03   -0.17974E-03  1584   0.490E-02    0.103E-01
RMM:   6    -0.115814491002E+04    0.26912E-03   -0.11925E-03  1521   0.332E-02    0.414E-02
RMM:   7    -0.115814489650E+04    0.13525E-04   -0.65074E-05  1017   0.946E-03
   2 F= -.11651917E+04 E0= -.11651917E+04  d E =0.150111E-02  mag=     0.0002
       N       E                     dE             d eps       ncg     rms          rms(c)
DAV:   1    -0.115815009300E+04   -0.51830E-02   -0.77696E-01  1656   0.130E+00    0.339E-01
RMM:   2    -0.115815119356E+04   -0.11006E-02   -0.15387E-02  1586   0.169E-01    0.318E-01
RMM:   3    -0.115815094497E+04    0.24860E-03   -0.88948E-04  1357   0.347E-02    0.284E-01
RMM:   4    -0.115815031030E+04    0.63467E-03   -0.24773E-03  1584   0.563E-02    0.106E-01
RMM:   5    -0.115815035562E+04   -0.45321E-04   -0.40525E-04  1329   0.243E-02
   3 F= -.11651969E+04 E0= -.11651969E+04  d E =-.374225E-02  mag=     0.0000
       N       E                     dE             d eps       ncg     rms          rms(c)
DAV:   1    -0.115815183843E+04   -0.15281E-02   -0.66506E-01  1656   0.128E+00    0.315E-01
RMM:   2    -0.115815242685E+04   -0.58842E-03   -0.14542E-02  1584   0.177E-01    0.274E-01
RMM:   3    -0.115815157013E+04    0.85672E-03   -0.10408E-03  1602   0.410E-02    0.224E-01
RMM:   4    -0.115815042251E+04    0.11476E-02   -0.48293E-03  1584   0.751E-02    0.739E-02
RMM:   5    -0.115815040564E+04    0.16866E-04   -0.22061E-04  1135   0.196E-02
   4 F= -.11651967E+04 E0= -.11651967E+04  d E =0.183209E-03  mag=     0.0000
       N       E                     dE             d eps       ncg     rms          rms(c)
DAV:   1    -0.115815200327E+04   -0.15808E-02   -0.17419E-01  1656   0.657E-01    0.148E-01
RMM:   2    -0.115815208325E+04   -0.79979E-04   -0.32185E-03  1584   0.832E-02    0.133E-01
RMM:   3    -0.115815186131E+04    0.22194E-03   -0.22646E-04  1097   0.203E-02    0.110E-01
RMM:   4    -0.115815155488E+04    0.30644E-03   -0.14242E-03  1584   0.414E-02    0.332E-02
RMM:   5    -0.115815155386E+04    0.10199E-05   -0.40385E-05   997   0.941E-03
   5 F= -.11651980E+04 E0= -.11651980E+04  d E =-.108573E-02  mag=     0.0000
       N       E                     dE             d eps       ncg     rms          rms(c)
DAV:   1    -0.115815195055E+04   -0.39567E-03   -0.23557E-01  1656   0.776E-01    0.124E-01
RMM:   2    -0.115815223040E+04   -0.27985E-03   -0.47030E-03  1584   0.104E-01    0.114E-01
RMM:   3    -0.115815211840E+04    0.11200E-03   -0.23023E-04  1140   0.216E-02    0.102E-01
RMM:   4    -0.115815188478E+04    0.23362E-03   -0.12828E-03  1576   0.393E-02    0.344E-02
RMM:   5    -0.115815187650E+04    0.82833E-05   -0.44079E-05  1018   0.967E-03
   6 F= -.11651983E+04 E0= -.11651983E+04  d E =-.293932E-03  mag=     0.0000
       N       E                     dE             d eps       ncg     rms          rms(c)
DAV:   1    -0.115815211499E+04   -0.23021E-03   -0.37325E-02  1728   0.309E-01    0.442E-02
RMM:   2    -0.115815214315E+04   -0.28158E-04   -0.60837E-04  1442   0.372E-02
   7 F= -.11651986E+04 E0= -.11651986E+04  d E =-.571757E-03  mag=     0.0000
