       N       E                     dE             d eps       ncg     rms          rms(c)
DAV:   1     0.505547138838E+04    0.50555E+04   -0.17210E+05  1800   0.920E+02
DAV:   2    -0.109460549239E+02   -0.50664E+04   -0.46339E+04  2520   0.213E+02
DAV:   3    -0.117961975172E+04   -0.11687E+04   -0.11639E+04  2088   0.113E+02
DAV:   4    -0.122901338602E+04   -0.49394E+02   -0.49144E+02  2016   0.307E+01
DAV:   5    -0.123028445090E+04   -0.12711E+01   -0.12672E+01  2268   0.458E+00    0.607E+01
RMM:   6    -0.121872112405E+04    0.11563E+02   -0.71406E+00  1584   0.318E+00    0.495E+01
RMM:   7    -0.117894677547E+04    0.39774E+02   -0.61710E+01  1584   0.908E+00    0.290E+01
RMM:   8    -0.116953485243E+04    0.94119E+01   -0.21960E+01  1584   0.554E+00    0.181E+01
RMM:   9    -0.116910117159E+04    0.43368E+00   -0.22560E+01  1584   0.546E+00    0.934E+00
RMM:  10    -0.116829490688E+04    0.80626E+00   -0.98390E-01  1600   0.148E+00    0.471E+00
RMM:  11    -0.116801205775E+04    0.28285E+00   -0.15508E+00  1584   0.140E+00    0.189E+00
RMM:  12    -0.116796673936E+04    0.45318E-01   -0.17258E-01  1595   0.556E-01    0.854E-01
RMM:  13    -0.116795422421E+04    0.12515E-01   -0.28761E-02  1591   0.212E-01    0.571E-01
RMM:  14    -0.116795031760E+04    0.39066E-02   -0.20966E-02  1650   0.165E-01    0.207E-01
RMM:  15    -0.116795046385E+04   -0.14625E-03   -0.25171E-03  1643   0.672E-02    0.139E-01
RMM:  16    -0.116795041013E+04    0.53714E-04   -0.76308E-04  1366   0.392E-02
   1 F= -.11750200E+04 E0= -.11750200E+04  d E =-.117502E+04  mag=     0.0012
       N       E                     dE             d eps       ncg     rms          rms(c)
DAV:   1    -0.116795127400E+04   -0.81015E-03   -0.52545E-01  1656   0.114E+00    0.216E-01
RMM:   2    -0.116795198760E+04   -0.71360E-03   -0.13075E-02  1586   0.166E-01    0.201E-01
RMM:   3    -0.116795153680E+04    0.45080E-03   -0.92985E-04  1513   0.468E-02    0.174E-01
RMM:   4    -0.116795064776E+04    0.88904E-03   -0.26687E-03  1584   0.591E-02    0.640E-02
RMM:   5    -0.116795062940E+04    0.18364E-04   -0.19008E-04  1074   0.200E-02
   2 F= -.11750206E+04 E0= -.11750206E+04  d E =-.548433E-03  mag=     0.0002
       N       E                     dE             d eps       ncg     rms          rms(c)
DAV:   1    -0.116795172357E+04   -0.10758E-02   -0.92469E-02  1800   0.475E-01    0.883E-02
RMM:   2    -0.116795179585E+04   -0.72278E-04   -0.21113E-03  1584   0.673E-02    0.829E-02
RMM:   3    -0.116795168234E+04    0.11351E-03   -0.11970E-04  1016   0.180E-02    0.715E-02
RMM:   4    -0.116795148066E+04    0.20168E-03   -0.88679E-04  1572   0.339E-02    0.193E-02
RMM:   5    -0.116795148148E+04   -0.81815E-06   -0.17428E-05   995   0.849E-03
   3 F= -.11750213E+04 E0= -.11750213E+04  d E =-.126273E-02  mag=     0.0000
       N       E                     dE             d eps       ncg     rms          rms(c)
DAV:   1    -0.116795270965E+04   -0.12290E-02   -0.92438E-02  1728   0.463E-01    0.681E-02
RMM:   2    -0.116795277340E+04   -0.63757E-04   -0.15100E-03  1558   0.577E-02    0.650E-02
RMM:   3    -0.116795272422E+04    0.49183E-04   -0.84346E-05  1019   0.148E-02
   4 F= -.11750225E+04 E0= -.11750225E+04  d E =-.127432E-02  mag=    -0.0000
       N       E                     dE             d eps       ncg     rms          rms(c)
DAV:   1    -0.116795529894E+04   -0.25255E-02   -0.81325E-01  1728   0.138E+00    0.220E-01
RMM:   2    -0.116795588981E+04   -0.59088E-03   -0.12854E-02  1584   0.169E-01    0.209E-01
RMM:   3    -0.116795547326E+04    0.41656E-03   -0.91353E-04  1395   0.438E-02    0.184E-01
RMM:   4    -0.116795478565E+04    0.68761E-03   -0.43166E-03  1584   0.736E-02    0.435E-02
RMM:   5    -0.116795476509E+04    0.20565E-04   -0.70815E-05  1056   0.158E-02
   5 F= -.11750247E+04 E0= -.11750247E+04  d E =-.341809E-02  mag=    -0.0000
       N       E                     dE             d eps       ncg     rms          rms(c)
DAV:   1    -0.116795641901E+04   -0.16334E-02   -0.15840E-01  1728   0.609E-01    0.902E-02
RMM:   2    -0.116795659025E+04   -0.17123E-03   -0.30507E-03  1584   0.832E-02    0.871E-02
RMM:   3    -0.116795654749E+04    0.42759E-04   -0.16346E-04  1106   0.208E-02
   6 F= -.11750265E+04 E0= -.11750265E+04  d E =-.177190E-02  mag=     0.0000
       N       E                     dE             d eps       ncg     rms          rms(c)
DAV:   1    -0.116795737106E+04   -0.78081E-03   -0.13579E+00  1656   0.179E+00    0.267E-01
RMM:   2    -0.116795890611E+04   -0.15351E-02   -0.23939E-02  1584   0.233E-01    0.255E-01
RMM:   3    -0.116795854857E+04    0.35754E-03   -0.15943E-03  1532   0.584E-02    0.233E-01
RMM:   4    -0.116795767682E+04    0.87175E-03   -0.43820E-03  1584   0.737E-02    0.744E-02
RMM:   5    -0.116795776226E+04   -0.85440E-04   -0.34758E-04  1206   0.249E-02
   7 F= -.11750277E+04 E0= -.11750277E+04  d E =-.296928E-02  mag=     0.0000
       N       E                     dE             d eps       ncg     rms          rms(c)
DAV:   1    -0.116796074471E+04   -0.30679E-02   -0.17322E-01  1728   0.689E-01    0.974E-02
RMM:   2    -0.116796108352E+04   -0.33881E-03   -0.44002E-03  1592   0.105E-01    0.963E-02
RMM:   3    -0.116796104980E+04    0.33713E-04   -0.21079E-04  1122   0.248E-02
   8 F= -.11750309E+04 E0= -.11750309E+04  d E =-.322325E-02  mag=    -0.0000
       N       E                     dE             d eps       ncg     rms          rms(c)
DAV:   1    -0.116796089194E+04    0.19157E-03   -0.26760E-03  1872   0.862E-02    0.586E-02
RMM:   2    -0.116796088563E+04    0.63170E-05   -0.44875E-05  1006   0.109E-02
   9 F= -.11750307E+04 E0= -.11750307E+04  d E =-.305101E-02  mag=     0.0000
