       N       E                     dE             d eps       ncg     rms          rms(c)
DAV:   1     0.517482324754E+04    0.51748E+04   -0.16793E+05  1656   0.991E+02
DAV:   2     0.123961817235E+03   -0.50509E+04   -0.46365E+04  2196   0.230E+02
DAV:   3    -0.115607112124E+04   -0.12800E+04   -0.12680E+04  1944   0.127E+02
DAV:   4    -0.122527285555E+04   -0.69202E+02   -0.68575E+02  1980   0.412E+01
DAV:   5    -0.122755654084E+04   -0.22837E+01   -0.22734E+01  2088   0.631E+00    0.596E+01
RMM:   6    -0.121462397786E+04    0.12933E+02   -0.67441E+00  1742   0.370E+00    0.486E+01
RMM:   7    -0.117206534649E+04    0.42559E+02   -0.57956E+01  1775   0.107E+01    0.283E+01
RMM:   8    -0.116187063682E+04    0.10195E+02   -0.54059E+01  1870   0.127E+01    0.118E+01
RMM:   9    -0.116326109327E+04   -0.13905E+01   -0.80337E+00  1849   0.689E+00    0.924E+00
RMM:  10    -0.116244284050E+04    0.81825E+00   -0.16126E+00  1833   0.292E+00    0.537E+00
RMM:  11    -0.116205195186E+04    0.39089E+00   -0.92017E-01  1828   0.170E+00    0.167E+00
RMM:  12    -0.116201454668E+04    0.37405E-01   -0.23416E-01  1851   0.964E-01    0.873E-01
RMM:  13    -0.116199542871E+04    0.19118E-01   -0.97748E-02  1912   0.567E-01    0.325E-01
RMM:  14    -0.116199593014E+04   -0.50143E-03   -0.13300E-02  1901   0.177E-01    0.248E-01
RMM:  15    -0.116199578109E+04    0.14905E-03   -0.24447E-03  1763   0.745E-02    0.173E-01
RMM:  16    -0.116199644970E+04   -0.66861E-03   -0.20596E-03  1574   0.804E-02    0.988E-02
RMM:  17    -0.116199649816E+04   -0.48460E-04   -0.53671E-04  1102   0.523E-02
   1 F= -.11696149E+04 E0= -.11696149E+04  d E =-.116961E+04  mag=     0.0095
       N       E                     dE             d eps       ncg     rms          rms(c)
DAV:   1    -0.116199612862E+04    0.32108E-03   -0.14157E-01  1728   0.668E-01    0.104E-01
RMM:   2    -0.116199634445E+04   -0.21583E-03   -0.34283E-03  1725   0.104E-01    0.965E-02
RMM:   3    -0.116199627734E+04    0.67109E-04   -0.28409E-04  1043   0.687E-02
   2 F= -.11696150E+04 E0= -.11696150E+04  d E =-.123340E-03  mag=    -0.0040
       N       E                     dE             d eps       ncg     rms          rms(c)
DAV:   1    -0.116199653405E+04   -0.18960E-03   -0.23398E-02  1728   0.271E-01    0.360E-02
RMM:   2    -0.116199658503E+04   -0.50978E-04   -0.61401E-04  1418   0.474E-02
   3 F= -.11696152E+04 E0= -.11696152E+04  d E =-.305509E-03  mag=    -0.0014
