       N       E                     dE             d eps       ncg     rms          rms(c)
DAV:   1     0.487244394930E+04    0.48724E+04   -0.17400E+05  1836   0.919E+02
DAV:   2    -0.446194097319E+02   -0.49171E+04   -0.45000E+04  2520   0.212E+02
DAV:   3    -0.117638306180E+04   -0.11318E+04   -0.11270E+04  2124   0.111E+02
DAV:   4    -0.122276773762E+04   -0.46385E+02   -0.46171E+02  2016   0.296E+01
DAV:   5    -0.122395094071E+04   -0.11832E+01   -0.11807E+01  2376   0.439E+00    0.611E+01
RMM:   6    -0.121243247618E+04    0.11518E+02   -0.73116E+00  1584   0.308E+00    0.502E+01
RMM:   7    -0.119695052209E+04    0.15482E+02   -0.11697E+01  1584   0.410E+00    0.410E+01
RMM:   8    -0.116965633384E+04    0.27294E+02   -0.36240E+01  1584   0.703E+00    0.282E+01
RMM:   9    -0.117462055743E+04   -0.49642E+01   -0.46045E+01  1584   0.783E+00    0.310E+01
RMM:  10    -0.117112037338E+04    0.35002E+01   -0.13604E+00  1657   0.178E+00    0.304E+01
RMM:  11    -0.118145493068E+04   -0.10335E+02   -0.49924E-01  1649   0.767E-01    0.323E+01
RMM:  12    -0.118744508166E+04   -0.59902E+01   -0.17455E+02  1712   0.636E+00    0.198E+01
RMM:  13    -0.118964565264E+04   -0.22006E+01   -0.87758E+00  1743   0.199E+00    0.222E+01
RMM:  14    -0.118968099689E+04   -0.35344E-01   -0.79359E-01  1890   0.493E-01    0.231E+01
RMM:  15    -0.118824333313E+04    0.14377E+01   -0.72965E-02  1603   0.268E-01    0.225E+01
RMM:  16    -0.117510107642E+04    0.13142E+02   -0.66725E+00  1585   0.222E+00    0.162E+01
RMM:  17    -0.117282171420E+04    0.22794E+01   -0.88216E-01  1617   0.890E-01    0.148E+01
RMM:  18    -0.116874261400E+04    0.40791E+01   -0.14816E+00  1588   0.866E-01    0.119E+01
RMM:  19    -0.116603295876E+04    0.27097E+01   -0.11084E+00  1584   0.671E-01    0.948E+00
RMM:  20    -0.116538936719E+04    0.64359E+00   -0.23282E-01  1633   0.288E-01    0.862E+00
RMM:  21    -0.116544953287E+04   -0.60166E-01   -0.11302E-02  1491   0.791E-02    0.863E+00
RMM:  22    -0.116502480883E+04    0.42472E+00   -0.37877E-02  1584   0.115E-01    0.815E+00
RMM:  23    -0.116413878019E+04    0.88603E+00   -0.19603E-01  1584   0.248E-01    0.698E+00
RMM:  24    -0.116631454064E+04   -0.21758E+01   -0.20066E+00  1584   0.737E-01    0.222E+01
RMM:  25    -0.116503448597E+04    0.12801E+01   -0.66305E-02  1651   0.244E-01    0.211E+01
RMM:  26    -0.116270438024E+04    0.23301E+01   -0.16002E-01  1584   0.178E-01    0.104E+01
RMM:  27    -0.116280996162E+04   -0.10558E+00   -0.61231E-03  1259   0.690E-02    0.106E+01
RMM:  28    -0.116285579772E+04   -0.45836E-01   -0.72439E-04  1085   0.237E-02    0.107E+01
RMM:  29    -0.116296722550E+04   -0.11143E+00   -0.15919E-03  1138   0.194E-02    0.119E+01
RMM:  30    -0.116294413413E+04    0.23091E-01   -0.11694E-04  1045   0.125E-02    0.116E+01
RMM:  31    -0.116292196344E+04    0.22171E-01   -0.87120E-05  1002   0.959E-03    0.112E+01
RMM:  32    -0.116352089364E+04   -0.59893E+00   -0.11873E-02  1465   0.545E-02    0.199E+01
RMM:  33    -0.116230180788E+04    0.12191E+01   -0.16064E-01  1588   0.200E-01    0.995E+00
RMM:  34    -0.116245023437E+04   -0.14843E+00   -0.63909E-03  1315   0.712E-02    0.102E+01
RMM:  35    -0.116250148663E+04   -0.51252E-01   -0.84107E-04  1130   0.281E-02    0.103E+01
RMM:  36    -0.116259125967E+04   -0.89773E-01   -0.19166E-03  1222   0.248E-02    0.101E+01
RMM:  37    -0.116313836408E+04   -0.54710E+00   -0.32755E-02  1525   0.774E-02    0.164E+01
RMM:  38    -0.116255005848E+04    0.58831E+00   -0.35660E-02  1546   0.946E-02    0.975E+00
RMM:  39    -0.116257230239E+04   -0.22244E-01   -0.34757E-03  1226   0.475E-02    0.974E+00
RMM:  40    -0.116358041019E+04   -0.10081E+01   -0.51754E-02  1587   0.128E-01    0.200E+01
RMM:  41    -0.116358345392E+04   -0.30437E-02   -0.74235E-03  1591   0.106E-01    0.201E+01
RMM:  42    -0.116605064784E+04   -0.24672E+01   -0.10574E-01  1588   0.165E-01    0.215E+01
RMM:  43    -0.116601008724E+04    0.40561E-01   -0.79482E-03  1390   0.603E-02    0.215E+01
RMM:  44    -0.116646643374E+04   -0.45635E+00   -0.43773E-03  1339   0.357E-02    0.221E+01
RMM:  45    -0.116667691648E+04   -0.21048E+00   -0.11587E-03  1305   0.298E-02    0.228E+01
RMM:  46    -0.116662722356E+04    0.49693E-01   -0.24450E-04  1085   0.219E-02    0.226E+01
RMM:  47    -0.116662660783E+04    0.61573E-03   -0.26739E-05  1040   0.899E-03    0.227E+01
RMM:  48    -0.116746466892E+04   -0.83806E+00   -0.51792E-03  1470   0.429E-02    0.260E+01
RMM:  49    -0.116294939790E+04    0.45153E+01   -0.52683E-01  1588   0.280E-01    0.143E+01
RMM:  50    -0.116355891904E+04   -0.60952E+00   -0.17003E-02  1602   0.109E-01    0.202E+01
RMM:  51    -0.116254368018E+04    0.10152E+01   -0.13028E-01  1590   0.144E-01    0.104E+01
RMM:  52    -0.116259935877E+04   -0.55679E-01   -0.17628E-02  1431   0.778E-02    0.105E+01
RMM:  53    -0.116337016942E+04   -0.77081E+00   -0.26973E-02  1549   0.741E-02    0.198E+01
RMM:  54    -0.116442838954E+04   -0.10582E+01   -0.31441E-02  1569   0.982E-02    0.208E+01
RMM:  55    -0.116528367051E+04   -0.85528E+00   -0.16840E-02  1560   0.738E-02    0.212E+01
RMM:  56    -0.116354192835E+04    0.17417E+01   -0.88400E-02  1583   0.130E-01    0.204E+01
RMM:  57    -0.116342713351E+04    0.11479E+00   -0.64995E-03  1223   0.373E-02    0.201E+01
RMM:  58    -0.116369732370E+04   -0.27019E+00   -0.11537E-03  1125   0.214E-02    0.205E+01
RMM:  59    -0.116372062838E+04   -0.23305E-01   -0.32487E-04  1053   0.148E-02    0.205E+01
RMM:  60    -0.116367768597E+04    0.42942E-01   -0.76955E-04  1133   0.215E-02    0.204E+01
RMM:  61    -0.116295289232E+04    0.72479E+00   -0.27986E-02  1522   0.746E-02    0.141E+01
RMM:  62    -0.116311966789E+04   -0.16678E+00   -0.12480E-02  1452   0.830E-02    0.135E+01
RMM:  63    -0.116309936558E+04    0.20302E-01   -0.20201E-03  1205   0.368E-02    0.136E+01
RMM:  64    -0.116306800269E+04    0.31363E-01   -0.93431E-04  1068   0.163E-02    0.135E+01
RMM:  65    -0.116296221665E+04    0.10579E+00   -0.21510E-03  1140   0.218E-02    0.135E+01
RMM:  66    -0.116605450561E+04   -0.30923E+01   -0.26801E-01  1594   0.342E-01    0.219E+01
RMM:  67    -0.116547785367E+04    0.57665E+00   -0.16555E-02  1635   0.126E-01    0.217E+01
RMM:  68    -0.116540630561E+04    0.71548E-01   -0.73462E-03  1590   0.899E-02    0.216E+01
RMM:  69    -0.116548832805E+04   -0.82022E-01   -0.11421E-02  1607   0.842E-02    0.215E+01
RMM:  70    -0.116561445745E+04   -0.12613E+00   -0.35803E-03  1493   0.488E-02    0.215E+01
RMM:  71    -0.116600737932E+04   -0.39292E+00   -0.35468E-03  1438   0.367E-02    0.216E+01
RMM:  72    -0.116640057381E+04   -0.39319E+00   -0.43735E-03  1446   0.489E-02    0.218E+01
RMM:  73    -0.116669988009E+04   -0.29931E+00   -0.11934E-02  1557   0.737E-02    0.218E+01
RMM:  74    -0.116694910233E+04   -0.24922E+00   -0.80825E-03  1402   0.565E-02    0.220E+01
RMM:  75    -0.116703577893E+04   -0.86677E-01   -0.10333E-02  1584   0.737E-02    0.220E+01
RMM:  76    -0.116728209074E+04   -0.24631E+00   -0.17712E-02  1619   0.949E-02    0.223E+01
RMM:  77    -0.116683375651E+04    0.44833E+00   -0.33206E-03  1472   0.514E-02    0.219E+01
RMM:  78    -0.116654543285E+04    0.28832E+00   -0.41137E-03  1566   0.500E-02    0.217E+01
RMM:  79    -0.116657157990E+04   -0.26147E-01   -0.16281E-03  1132   0.332E-02    0.217E+01
RMM:  80    -0.116626113616E+04    0.31044E+00   -0.27567E-03  1259   0.344E-02    0.216E+01
RMM:  81    -0.116511390084E+04    0.11472E+01   -0.18716E+00  1586   0.837E-01    0.136E+01
RMM:  82    -0.116474958290E+04    0.36432E+00   -0.23501E-01  1612   0.275E-01    0.122E+01
RMM:  83    -0.116475067546E+04   -0.10926E-02   -0.14255E-02  1557   0.982E-02    0.119E+01
RMM:  84    -0.116479873676E+04   -0.48061E-01   -0.22467E-03  1216   0.409E-02    0.120E+01
RMM:  85    -0.116465289804E+04    0.14584E+00   -0.12007E-02  1559   0.755E-02    0.108E+01
RMM:  86    -0.116465010803E+04    0.27900E-02   -0.47869E-02  1601   0.149E-01    0.116E+01
RMM:  87    -0.116473619098E+04   -0.86083E-01   -0.79510E-03  1359   0.508E-02    0.120E+01
RMM:  88    -0.116437934519E+04    0.35685E+00   -0.25264E-02  1584   0.957E-02    0.119E+01
RMM:  89    -0.116443727216E+04   -0.57927E-01   -0.51305E-03  1531   0.627E-02    0.120E+01
RMM:  90    -0.116466015651E+04   -0.22288E+00   -0.97546E-02  1590   0.343E-01    0.123E+01
RMM:  91    -0.116397482225E+04    0.68533E+00   -0.85999E-02  1593   0.200E-01    0.116E+01
RMM:  92    -0.116380359047E+04    0.17123E+00   -0.33628E-02  1680   0.999E-02    0.111E+01
RMM:  93    -0.116332269241E+04    0.48090E+00   -0.11042E-01  1595   0.250E-01    0.102E+01
RMM:  94    -0.116304181957E+04    0.28087E+00   -0.36063E-02  1619   0.110E-01    0.101E+01
RMM:  95    -0.116266958509E+04    0.37223E+00   -0.26435E-02  1586   0.109E-01    0.103E+01
RMM:  96    -0.116273818657E+04   -0.68601E-01   -0.11079E-02  1584   0.962E-02    0.105E+01
RMM:  97    -0.116266536636E+04    0.72820E-01   -0.35320E-03  1171   0.381E-02    0.107E+01
RMM:  98    -0.116274753238E+04   -0.82166E-01   -0.73022E-04  1103   0.228E-02    0.106E+01
RMM:  99    -0.116290076160E+04   -0.15323E+00   -0.38824E-03  1376   0.399E-02    0.104E+01
RMM: 100    -0.116337158841E+04   -0.47083E+00   -0.33171E-02  1589   0.101E-01
   1 F= -.11703962E+04 E0= -.11703962E+04  d E =-.117040E+04  mag=     4.4669
       N       E                     dE             d eps       ncg     rms          rms(c)
DAV:   1    -0.117001985867E+04   -0.71191E+01   -0.12715E+02  1836   0.145E+01    0.332E+01
RMM:   2    -0.116518602240E+04    0.48338E+01   -0.30325E+01  1598   0.358E+00    0.159E+01
RMM:   3    -0.116333380560E+04    0.18522E+01   -0.11375E+00  1592   0.987E-01    0.128E+01
RMM:   4    -0.117358896336E+04   -0.10255E+02   -0.28025E+00  1585   0.118E+00    0.291E+01
RMM:   5    -0.116263605436E+04    0.10953E+02   -0.76686E+00  1587   0.118E+00    0.594E+00
RMM:   6    -0.116258803195E+04    0.48022E-01   -0.49336E-01  1604   0.370E-01    0.646E+00
RMM:   7    -0.116182624106E+04    0.76179E+00   -0.46611E-01  1585   0.573E-01    0.479E+00
RMM:   8    -0.116155137230E+04    0.27487E+00   -0.16351E-01  1594   0.271E-01    0.756E+00
RMM:   9    -0.116168403714E+04   -0.13266E+00   -0.29703E-02  1727   0.127E-01    0.129E+01
RMM:  10    -0.116169407808E+04   -0.10041E-01   -0.31470E-03  1297   0.608E-02    0.130E+01
RMM:  11    -0.116153303330E+04    0.16104E+00   -0.38896E-03  1287   0.421E-02    0.106E+01
RMM:  12    -0.116146077198E+04    0.72261E-01   -0.26074E-03  1542   0.455E-02    0.890E+00
RMM:  13    -0.116148094298E+04   -0.20171E-01   -0.51777E-03  1527   0.498E-02    0.808E+00
RMM:  14    -0.116161184527E+04   -0.13090E+00   -0.36719E-02  1537   0.104E-01    0.692E+00
RMM:  15    -0.116196128755E+04   -0.34944E+00   -0.10367E-01  1600   0.175E-01    0.576E+00
RMM:  16    -0.116214071090E+04   -0.17942E+00   -0.54984E-02  1613   0.121E-01    0.506E+00
RMM:  17    -0.116219756678E+04   -0.56856E-01   -0.16935E-02  1250   0.567E-02    0.498E+00
RMM:  18    -0.116217665333E+04    0.20913E-01   -0.20740E-03  1215   0.344E-02    0.502E+00
RMM:  19    -0.116215845649E+04    0.18197E-01   -0.39750E-03  1379   0.388E-02    0.510E+00
RMM:  20    -0.116215802844E+04    0.42805E-03   -0.10833E-02  1563   0.661E-02    0.729E+00
RMM:  21    -0.116215309420E+04    0.49342E-02   -0.61447E-03  1329   0.760E-02    0.849E+00
RMM:  22    -0.116210168036E+04    0.51414E-01   -0.93749E-03  1292   0.591E-02    0.690E+00
RMM:  23    -0.116220188620E+04   -0.10021E+00   -0.42850E-03  1240   0.622E-02    0.794E+00
RMM:  24    -0.116216592108E+04    0.35965E-01   -0.47386E-03  1225   0.563E-02    0.687E+00
RMM:  25    -0.116228527432E+04   -0.11935E+00   -0.47344E-03  1282   0.455E-02    0.788E+00
RMM:  26    -0.116232942448E+04   -0.44150E-01   -0.26070E-03  1212   0.493E-02    0.852E+00
RMM:  27    -0.116226607480E+04    0.63350E-01   -0.75469E-04  1134   0.287E-02    0.802E+00
RMM:  28    -0.116226860907E+04   -0.25343E-02   -0.11337E-03  1131   0.249E-02    0.835E+00
RMM:  29    -0.116231696767E+04   -0.48359E-01   -0.22259E-03  1225   0.527E-02    0.847E+00
RMM:  30    -0.116222828232E+04    0.88685E-01   -0.45210E-03  1336   0.403E-02    0.859E+00
RMM:  31    -0.116220859955E+04    0.19683E-01   -0.60688E-04  1093   0.224E-02    0.864E+00
RMM:  32    -0.116217747980E+04    0.31120E-01   -0.48882E-04  1049   0.145E-02    0.800E+00
RMM:  33    -0.116211167604E+04    0.65804E-01   -0.70817E-03  1362   0.453E-02    0.682E+00
RMM:  34    -0.116208602867E+04    0.25647E-01   -0.84704E-03  1463   0.663E-02    0.816E+00
RMM:  35    -0.116206800660E+04    0.18022E-01   -0.10025E-03  1123   0.266E-02    0.858E+00
RMM:  36    -0.116211441643E+04   -0.46410E-01   -0.13734E-03  1156   0.263E-02    0.102E+01
RMM:  37    -0.116213038285E+04   -0.15966E-01   -0.26816E-03  1202   0.341E-02    0.106E+01
RMM:  38    -0.116219502025E+04   -0.64637E-01   -0.70342E-03  1395   0.449E-02    0.104E+01
RMM:  39    -0.116229819922E+04   -0.10318E+00   -0.28072E-02  1569   0.870E-02    0.980E+00
RMM:  40    -0.116236521562E+04   -0.67016E-01   -0.24687E-02  1612   0.104E-01    0.940E+00
RMM:  41    -0.116239028819E+04   -0.25073E-01   -0.75805E-03  1496   0.583E-02    0.920E+00
RMM:  42    -0.116241227056E+04   -0.21982E-01   -0.93955E-04  1095   0.207E-02    0.909E+00
RMM:  43    -0.116243825518E+04   -0.25985E-01   -0.33060E-04  1049   0.128E-02    0.900E+00
RMM:  44    -0.116252002373E+04   -0.81769E-01   -0.47209E-03  1139   0.357E-02    0.876E+00
RMM:  45    -0.116256015259E+04   -0.40129E-01   -0.94926E-04  1045   0.155E-02    0.864E+00
RMM:  46    -0.116255339807E+04    0.67545E-02   -0.74896E-05   912   0.689E-03    0.866E+00
RMM:  47    -0.116243635688E+04    0.11704E+00   -0.14862E-02  1493   0.665E-02    0.923E+00
RMM:  48    -0.116244458256E+04   -0.82257E-02   -0.63889E-04  1082   0.191E-02    0.921E+00
RMM:  49    -0.116234048181E+04    0.10410E+00   -0.16038E-03  1086   0.248E-02    0.953E+00
RMM:  50    -0.116251274085E+04   -0.17226E+00   -0.45787E-03  1125   0.330E-02    0.887E+00
RMM:  51    -0.116256910892E+04   -0.56368E-01   -0.45153E-03  1248   0.388E-02    0.854E+00
RMM:  52    -0.116189408307E+04    0.67503E+00   -0.80991E-02  1587   0.180E-01    0.936E+00
RMM:  53    -0.116193499226E+04   -0.40909E-01   -0.39951E-03  1267   0.387E-02    0.972E+00
RMM:  54    -0.116186474794E+04    0.70244E-01   -0.45692E-03  1290   0.418E-02    0.693E+00
RMM:  55    -0.116211749030E+04   -0.25274E+00   -0.12644E-02  1443   0.784E-02    0.101E+01
RMM:  56    -0.116190668199E+04    0.21081E+00   -0.47398E-03  1239   0.545E-02    0.102E+01
RMM:  57    -0.116263293139E+04   -0.72625E+00   -0.75723E-02  1427   0.112E-01    0.810E+00
RMM:  58    -0.116261283876E+04    0.20093E-01   -0.89586E-03  1411   0.530E-02    0.803E+00
RMM:  59    -0.116254472591E+04    0.68113E-01   -0.19546E-03  1132   0.294E-02    0.832E+00
RMM:  60    -0.116244317377E+04    0.10155E+00   -0.50329E-03  1546   0.607E-02    0.830E+00
RMM:  61    -0.116226974677E+04    0.17343E+00   -0.66747E-03  1277   0.452E-02    0.875E+00
RMM:  62    -0.116222306104E+04    0.46686E-01   -0.37016E-03  1462   0.496E-02    0.887E+00
RMM:  63    -0.116219071534E+04    0.32346E-01   -0.11019E-03  1078   0.220E-02    0.906E+00
RMM:  64    -0.116213703538E+04    0.53680E-01   -0.15882E-03  1081   0.211E-02    0.931E+00
RMM:  65    -0.116213049624E+04    0.65391E-02   -0.33038E-04   924   0.910E-03    0.937E+00
RMM:  66    -0.116211168467E+04    0.18812E-01   -0.13372E-04   984   0.848E-03    0.939E+00
RMM:  67    -0.116209746644E+04    0.14218E-01   -0.43208E-04  1033   0.150E-02    0.940E+00
RMM:  68    -0.116208784406E+04    0.96224E-02   -0.83688E-05   911   0.719E-03    0.945E+00
RMM:  69    -0.116207346844E+04    0.14376E-01   -0.27374E-04   893   0.891E-03    0.955E+00
RMM:  70    -0.116206091345E+04    0.12555E-01   -0.69983E-04   978   0.118E-02    0.970E+00
RMM:  71    -0.116204726649E+04    0.13647E-01   -0.94986E-04   993   0.128E-02    0.986E+00
RMM:  72    -0.116181295664E+04    0.23431E+00   -0.24706E-01  1565   0.175E-01    0.103E+01
RMM:  73    -0.116192989938E+04   -0.11694E+00   -0.19079E-02  1424   0.109E-01    0.102E+01
RMM:  74    -0.116192919662E+04    0.70275E-03   -0.32310E-03  1148   0.321E-02    0.105E+01
RMM:  75    -0.116194071878E+04   -0.11522E-01   -0.11031E-03  1099   0.201E-02    0.100E+01
RMM:  76    -0.116204299180E+04   -0.10227E+00   -0.85464E-03  1138   0.402E-02    0.103E+01
RMM:  77    -0.116211422577E+04   -0.71234E-01   -0.93896E-02  1582   0.156E-01    0.108E+01
RMM:  78    -0.116223954050E+04   -0.12531E+00   -0.15068E-02  1333   0.729E-02    0.104E+01
RMM:  79    -0.116224109602E+04   -0.15555E-02   -0.40777E-03  1170   0.369E-02    0.107E+01
RMM:  80    -0.116220538569E+04    0.35710E-01   -0.34394E-03  1125   0.283E-02    0.110E+01
RMM:  81    -0.116215787482E+04    0.47511E-01   -0.36835E-03  1126   0.246E-02    0.113E+01
RMM:  82    -0.116198027918E+04    0.17760E+00   -0.83354E-01  1590   0.381E-01    0.687E+00
RMM:  83    -0.116215935521E+04   -0.17908E+00   -0.56717E-01  1579   0.316E-01    0.101E+01
RMM:  84    -0.116263002771E+04   -0.47067E+00   -0.16488E-01  1567   0.160E-01    0.946E+00
RMM:  85    -0.116265517545E+04   -0.25148E-01   -0.22520E-02  1181   0.518E-02    0.943E+00
RMM:  86    -0.116262740045E+04    0.27775E-01   -0.16715E-03  1091   0.210E-02    0.936E+00
RMM:  87    -0.116271742848E+04   -0.90028E-01   -0.29669E-02  1360   0.752E-02    0.915E+00
RMM:  88    -0.116273305989E+04   -0.15631E-01   -0.81711E-03  1147   0.399E-02    0.917E+00
RMM:  89    -0.116274646539E+04   -0.13406E-01   -0.88408E-04  1014   0.155E-02    0.918E+00
RMM:  90    -0.116277890325E+04   -0.32438E-01   -0.84580E-03  1094   0.351E-02    0.922E+00
RMM:  91    -0.116285593061E+04   -0.77027E-01   -0.27313E-01  1413   0.192E-01    0.988E+00
RMM:  92    -0.116258335722E+04    0.27257E+00   -0.18333E-01  1412   0.162E-01    0.108E+01
RMM:  93    -0.116242421538E+04    0.15914E+00   -0.59971E-02  1314   0.970E-02    0.916E+00
RMM:  94    -0.116276914519E+04   -0.34493E+00   -0.18864E-01  1354   0.161E-01    0.799E+00
RMM:  95    -0.116278335154E+04   -0.14206E-01   -0.14102E-01  1341   0.129E-01    0.768E+00
RMM:  96    -0.116278310612E+04    0.24542E-03   -0.15890E-02  1168   0.501E-02    0.773E+00
RMM:  97    -0.113210246139E+04    0.30681E+02   -0.43786E+01  1586   0.354E+00    0.167E+01
RMM:  98    -0.113681531401E+04   -0.47129E+01   -0.10460E+00  1700   0.572E-01    0.147E+01
RMM:  99    -0.114046087159E+04   -0.36456E+01   -0.30617E-01  1524   0.338E-01    0.134E+01
RMM: 100    -0.114038970228E+04    0.71169E-01   -0.21590E-02  1333   0.617E-02
   2 F= -.11474141E+04 E0= -.11474141E+04  d E =0.229821E+02  mag=     0.4217
       N       E                     dE             d eps       ncg     rms          rms(c)
DAV:   1    -0.114570805983E+04   -0.52472E+01   -0.20648E+01  1656   0.599E+00    0.118E+01
RMM:   2    -0.115568319077E+04   -0.99751E+01   -0.71504E+00  1613   0.193E+00    0.829E+00
RMM:   3    -0.116196678054E+04   -0.62836E+01   -0.10588E+01  1675   0.164E+00    0.644E+00
RMM:   4    -0.116781524626E+04   -0.58485E+01   -0.35020E+01  1834   0.983E-01    0.131E+01
RMM:   5    -0.116791099690E+04   -0.95751E-01   -0.31244E+00  1475   0.600E-01    0.146E+01
RMM:   6    -0.116757009379E+04    0.34090E+00   -0.26894E-01  1466   0.185E-01    0.147E+01
RMM:   7    -0.116725865862E+04    0.31144E+00   -0.36478E-02  1470   0.974E-02    0.146E+01
RMM:   8    -0.116605857948E+04    0.12001E+01   -0.21307E-01  1583   0.289E-01    0.137E+01
RMM:   9    -0.116266517660E+04    0.33934E+01   -0.20815E+00  1584   0.720E-01    0.103E+01
RMM:  10    -0.116210903577E+04    0.55614E+00   -0.66560E-01  1596   0.377E-01    0.598E+00
RMM:  11    -0.116294287186E+04   -0.83384E+00   -0.20082E-01  1586   0.243E-01    0.945E+00
RMM:  12    -0.116844665992E+04   -0.55038E+01   -0.10014E+00  1584   0.768E-01    0.268E+01
RMM:  13    -0.116279979010E+04    0.56469E+01   -0.30218E-01  1593   0.363E-01    0.905E+00
RMM:  14    -0.116266173098E+04    0.13806E+00   -0.29947E-02  1484   0.129E-01    0.881E+00
RMM:  15    -0.116236686170E+04    0.29487E+00   -0.25995E-02  1381   0.601E-02    0.864E+00
RMM:  16    -0.116243102185E+04   -0.64160E-01   -0.10089E-02  1398   0.844E-02    0.842E+00
RMM:  17    -0.116233086746E+04    0.10015E+00   -0.73770E-03  1279   0.435E-02    0.817E+00
RMM:  18    -0.116203565293E+04    0.29521E+00   -0.11004E-01  1586   0.135E-01    0.623E+00
RMM:  19    -0.116333254777E+04   -0.12969E+01   -0.87995E-01  1585   0.392E-01    0.859E+00
RMM:  20    -0.116292495986E+04    0.40759E+00   -0.46640E-02  1584   0.182E-01    0.797E+00
RMM:  21    -0.116227701530E+04    0.64794E+00   -0.52513E-01  1584   0.288E-01    0.742E+00
RMM:  22    -0.116209251916E+04    0.18450E+00   -0.27362E-02  1524   0.152E-01    0.602E+00
RMM:  23    -0.116215912283E+04   -0.66604E-01   -0.25976E-02  1436   0.104E-01    0.583E+00
RMM:  24    -0.116213898402E+04    0.20139E-01   -0.82028E-03  1304   0.498E-02    0.583E+00
RMM:  25    -0.116215339710E+04   -0.14413E-01   -0.50787E-03  1192   0.370E-02    0.575E+00
RMM:  26    -0.116216089017E+04   -0.74931E-02   -0.31307E-03  1113   0.257E-02    0.571E+00
RMM:  27    -0.116215026494E+04    0.10625E-01   -0.15428E-03  1074   0.238E-02    0.572E+00
RMM:  28    -0.116213697880E+04    0.13286E-01   -0.20911E-03  1108   0.243E-02    0.574E+00
RMM:  29    -0.116213451486E+04    0.24639E-02   -0.25651E-04  1022   0.111E-02    0.574E+00
RMM:  30    -0.116213473266E+04   -0.21780E-03   -0.17997E-05   861   0.590E-03    0.574E+00
RMM:  31    -0.116213007036E+04    0.46623E-02   -0.44129E-04  1011   0.105E-02    0.574E+00
RMM:  32    -0.116212700365E+04    0.30667E-02   -0.14084E-03  1127   0.162E-02    0.570E+00
RMM:  33    -0.116212424291E+04    0.27607E-02   -0.45925E-04   987   0.978E-03    0.567E+00
RMM:  34    -0.116212336536E+04    0.87755E-03   -0.93861E-04  1113   0.171E-02    0.534E+00
RMM:  35    -0.116237733206E+04   -0.25397E+00   -0.50430E-02  1564   0.102E-01    0.692E+00
RMM:  36    -0.116237802486E+04   -0.69279E-03   -0.42978E-02  1510   0.138E-01    0.714E+00
RMM:  37    -0.116250303945E+04   -0.12501E+00   -0.29623E-02  1286   0.798E-02    0.718E+00
RMM:  38    -0.116229617122E+04    0.20687E+00   -0.42382E-02  1549   0.109E-01    0.668E+00
RMM:  39    -0.116221782025E+04    0.78351E-01   -0.95340E-03  1311   0.465E-02    0.558E+00
RMM:  40    -0.116219831763E+04    0.19503E-01   -0.25227E-03  1133   0.288E-02    0.472E+00
RMM:  41    -0.116216879587E+04    0.29522E-01   -0.65901E-03  1230   0.367E-02    0.481E+00
RMM:  42    -0.116220285504E+04   -0.34059E-01   -0.30858E-03  1251   0.594E-02    0.410E+00
RMM:  43    -0.116222339469E+04   -0.20540E-01   -0.15439E-03  1176   0.405E-02    0.478E+00
RMM:  44    -0.116219369912E+04    0.29696E-01   -0.18121E-03  1113   0.343E-02    0.422E+00
RMM:  45    -0.116219332798E+04    0.37114E-03   -0.35363E-04  1011   0.143E-02    0.413E+00
RMM:  46    -0.116219684158E+04   -0.35136E-02   -0.44467E-05   868   0.800E-03    0.417E+00
RMM:  47    -0.116225793623E+04   -0.61095E-01   -0.12717E-01  1582   0.171E-01    0.572E+00
RMM:  48    -0.116255901284E+04   -0.30108E+00   -0.10669E-01  1595   0.190E-01    0.896E+00
RMM:  49    -0.116227158049E+04    0.28743E+00   -0.10344E-02  1418   0.859E-02    0.790E+00
RMM:  50    -0.116219014212E+04    0.81438E-01   -0.33888E-03  1244   0.338E-02    0.588E+00
RMM:  51    -0.116232017588E+04   -0.13003E+00   -0.49689E-03  1282   0.543E-02    0.771E+00
RMM:  52    -0.116280162934E+04   -0.48145E+00   -0.54027E-02  1542   0.106E-01    0.905E+00
RMM:  53    -0.116279407006E+04    0.75593E-02   -0.61361E-03  1257   0.432E-02    0.911E+00
RMM:  54    -0.116279883237E+04   -0.47623E-02   -0.83085E-04  1097   0.188E-02    0.914E+00
RMM:  55    -0.116284445168E+04   -0.45619E-01   -0.87030E-04  1082   0.185E-02    0.910E+00
RMM:  56    -0.116277426065E+04    0.70191E-01   -0.27486E-03  1155   0.249E-02    0.892E+00
RMM:  57    -0.116216468316E+04    0.60958E+00   -0.29026E-01  1585   0.269E-01    0.791E+00
RMM:  58    -0.116225072907E+04   -0.86046E-01   -0.21611E-02  1403   0.101E-01    0.787E+00
RMM:  59    -0.116226491029E+04   -0.14181E-01   -0.38011E-03  1235   0.469E-02    0.802E+00
RMM:  60    -0.116220793799E+04    0.56972E-01   -0.34815E-03  1228   0.388E-02    0.787E+00
RMM:  61    -0.116214857349E+04    0.59364E-01   -0.71211E-03  1257   0.411E-02    0.677E+00
RMM:  62    -0.116210967166E+04    0.38902E-01   -0.14952E-02  1444   0.608E-02    0.479E+00
RMM:  63    -0.116221655805E+04   -0.10689E+00   -0.81113E-03  1277   0.766E-02    0.524E+00
RMM:  64    -0.116220093704E+04    0.15621E-01   -0.35549E-03  1201   0.504E-02    0.619E+00
RMM:  65    -0.116217848798E+04    0.22449E-01   -0.17399E-03  1145   0.379E-02    0.660E+00
RMM:  66    -0.116216269020E+04    0.15798E-01   -0.70532E-04  1053   0.196E-02    0.674E+00
RMM:  67    -0.116214700958E+04    0.15681E-01   -0.57516E-04  1011   0.143E-02    0.672E+00
RMM:  68    -0.116216176500E+04   -0.14755E-01   -0.16248E-04   863   0.889E-03    0.696E+00
RMM:  69    -0.116215764507E+04    0.41199E-02   -0.28638E-05   773   0.586E-03    0.697E+00
RMM:  70    -0.116215440282E+04    0.32422E-02   -0.13477E-05   643   0.430E-03    0.692E+00
RMM:  71    -0.116214730900E+04    0.70938E-02   -0.15471E-04   793   0.718E-03    0.680E+00
RMM:  72    -0.116215395755E+04   -0.66486E-02   -0.20679E-04  1003   0.945E-03    0.681E+00
RMM:  73    -0.116215483753E+04   -0.87998E-03   -0.12389E-04   796   0.670E-03    0.678E+00
RMM:  74    -0.116215185124E+04    0.29863E-02   -0.84772E-04  1057   0.153E-02    0.670E+00
RMM:  75    -0.116214984348E+04    0.20078E-02   -0.13184E-04   865   0.679E-03    0.667E+00
RMM:  76    -0.116215644542E+04   -0.66019E-02   -0.12702E-04   691   0.645E-03    0.675E+00
RMM:  77    -0.116213150440E+04    0.24941E-01   -0.35252E-03  1279   0.388E-02    0.651E+00
RMM:  78    -0.116212189550E+04    0.96089E-02   -0.60115E-04  1057   0.148E-02    0.636E+00
RMM:  79    -0.116209107120E+04    0.30824E-01   -0.36771E-04  1079   0.129E-02    0.547E+00
RMM:  80    -0.116207782401E+04    0.13247E-01   -0.11055E-03  1189   0.251E-02    0.451E+00
RMM:  81    -0.116209689305E+04   -0.19069E-01   -0.16265E-03  1180   0.403E-02    0.442E+00
RMM:  82    -0.116209963026E+04   -0.27372E-02   -0.29605E-03  1246   0.493E-02    0.513E+00
RMM:  83    -0.116209057910E+04    0.90512E-02   -0.12022E-03  1160   0.395E-02    0.486E+00
RMM:  84    -0.116208125743E+04    0.93217E-02   -0.64206E-04  1031   0.168E-02    0.488E+00
RMM:  85    -0.116209371122E+04   -0.12454E-01   -0.58977E-04  1025   0.166E-02    0.450E+00
RMM:  86    -0.116210065893E+04   -0.69477E-02   -0.34578E-04   948   0.180E-02    0.445E+00
RMM:  87    -0.116218637820E+04   -0.85719E-01   -0.31974E-02  1563   0.111E-01    0.428E+00
RMM:  88    -0.116219545730E+04   -0.90791E-02   -0.35250E-03  1168   0.323E-02    0.435E+00
RMM:  89    -0.116219849116E+04   -0.30339E-02   -0.43354E-04  1074   0.208E-02    0.435E+00
RMM:  90    -0.116219237948E+04    0.61117E-02   -0.55697E-04  1082   0.189E-02    0.454E+00
RMM:  91    -0.116217699498E+04    0.15385E-01   -0.77413E-04  1096   0.244E-02    0.484E+00
RMM:  92    -0.116315949761E+04   -0.98250E+00   -0.93715E-01  1589   0.499E-01    0.862E+00
RMM:  93    -0.116229281993E+04    0.86668E+00   -0.38944E-01  1584   0.351E-01    0.624E+00
RMM:  94    -0.116206132767E+04    0.23149E+00   -0.16052E-01  1574   0.173E-01    0.544E+00
RMM:  95    -0.116211998244E+04   -0.58655E-01   -0.14442E-02  1288   0.894E-02    0.351E+00
RMM:  96    -0.116218472754E+04   -0.64745E-01   -0.47879E-03  1366   0.439E-02    0.537E+00
RMM:  97    -0.116208873999E+04    0.95988E-01   -0.24125E-02  1566   0.110E-01    0.450E+00
RMM:  98    -0.116211257633E+04   -0.23836E-01   -0.70049E-03  1293   0.885E-02    0.559E+00
RMM:  99    -0.116208530682E+04    0.27270E-01   -0.15904E-03  1132   0.362E-02    0.560E+00
RMM: 100    -0.116207568305E+04    0.96238E-02   -0.18497E-03  1150   0.266E-02
   3 F= -.11690996E+04 E0= -.11690848E+04  d E =0.129660E+01  mag=    -0.3119
       N       E                     dE             d eps       ncg     rms          rms(c)
DAV:   1    -0.116236068540E+04   -0.27538E+00   -0.88331E+00  1728   0.360E+00    0.605E+00
RMM:   2    -0.116299748642E+04   -0.63680E+00   -0.75666E-01  1589   0.620E-01    0.897E+00
RMM:   3    -0.116230178279E+04    0.69570E+00   -0.12513E-01  1591   0.240E-01    0.677E+00
RMM:   4    -0.116226326012E+04    0.38523E-01   -0.13922E-01  1602   0.148E-01    0.500E+00
RMM:   5    -0.116228613679E+04   -0.22877E-01   -0.30510E-02  1586   0.158E-01    0.500E+00
RMM:   6    -0.116224929836E+04    0.36838E-01   -0.14558E-02  1585   0.960E-02    0.391E+00
RMM:   7    -0.116220400985E+04    0.45289E-01   -0.23981E-02  1584   0.160E-01    0.380E+00
RMM:   8    -0.116220415258E+04   -0.14273E-03   -0.11392E-02  1584   0.130E-01    0.399E+00
RMM:   9    -0.116221987503E+04   -0.15722E-01   -0.14827E-02  1585   0.111E-01    0.482E+00
RMM:  10    -0.116220470375E+04    0.15171E-01   -0.24101E-03  1343   0.881E-02    0.399E+00
RMM:  11    -0.116219364926E+04    0.11054E-01   -0.43872E-03  1285   0.472E-02    0.242E+00
RMM:  12    -0.116220529051E+04   -0.11641E-01   -0.19812E-03  1221   0.598E-02    0.842E-01
RMM:  13    -0.116221369189E+04   -0.84014E-02   -0.58172E-04  1121   0.269E-02    0.940E-01
RMM:  14    -0.116221644517E+04   -0.27533E-02   -0.78237E-04  1133   0.301E-02    0.317E-01
RMM:  15    -0.116222059495E+04   -0.41498E-02   -0.38250E-04  1134   0.268E-02    0.123E-01
RMM:  16    -0.116222051161E+04    0.83341E-04   -0.16103E-05   904   0.614E-03
   4 F= -.11692446E+04 E0= -.11692167E+04  d E =0.115163E+01  mag=     0.0039
       N       E                     dE             d eps       ncg     rms          rms(c)
DAV:   1    -0.116232807875E+04   -0.10748E+00   -0.24954E+00  1764   0.196E+00    0.517E+00
RMM:   2    -0.116301963065E+04   -0.69155E+00   -0.48539E-01  1587   0.410E-01    0.883E+00
RMM:   3    -0.116236158385E+04    0.65805E+00   -0.99069E-02  1587   0.200E-01    0.773E+00
RMM:   4    -0.116216891825E+04    0.19267E+00   -0.39075E-02  1559   0.868E-02    0.327E+00
RMM:   5    -0.116223857779E+04   -0.69660E-01   -0.38130E-03  1233   0.520E-02    0.307E+00
RMM:   6    -0.116225942497E+04   -0.20847E-01   -0.92837E-04  1401   0.350E-02    0.394E+00
RMM:   7    -0.116231016354E+04   -0.50739E-01   -0.38593E-02  1587   0.138E-01    0.573E+00
RMM:   8    -0.116222394932E+04    0.86214E-01   -0.13217E-02  1585   0.128E-01    0.157E+00
RMM:   9    -0.116227904027E+04   -0.55091E-01   -0.45241E-03  1585   0.732E-02    0.380E+00
RMM:  10    -0.116223351445E+04    0.45526E-01   -0.33423E-03  1512   0.612E-02    0.103E+00
RMM:  11    -0.116226246992E+04   -0.28955E-01   -0.13079E-03  1225   0.463E-02    0.580E-01
RMM:  12    -0.116226960954E+04   -0.71396E-02   -0.52211E-04  1139   0.331E-02    0.489E-01
RMM:  13    -0.116226902284E+04    0.58669E-03   -0.26867E-04  1053   0.234E-02    0.304E-01
RMM:  14    -0.116226974770E+04   -0.72485E-03   -0.18815E-04  1042   0.209E-02    0.320E-01
RMM:  15    -0.116226962607E+04    0.12163E-03   -0.50014E-05   986   0.118E-02    0.309E-01
RMM:  16    -0.116226969079E+04   -0.64728E-04   -0.31012E-05   971   0.744E-03
   5 F= -.11692940E+04 E0= -.11692659E+04  d E =0.110225E+01  mag=     0.0311
       N       E                     dE             d eps       ncg     rms          rms(c)
DAV:   1    -0.116229936370E+04   -0.29738E-01   -0.62577E-01  1728   0.986E-01    0.335E+00
RMM:   2    -0.116273746628E+04   -0.43810E+00   -0.20104E-01  1584   0.239E-01    0.832E+00
RMM:   3    -0.116225222500E+04    0.48524E+00   -0.57520E-02  1583   0.153E-01    0.622E+00
RMM:   4    -0.116218843298E+04    0.63792E-01   -0.13912E-02  1357   0.506E-02    0.159E+00
RMM:   5    -0.116226529021E+04   -0.76857E-01   -0.31838E-03  1230   0.581E-02    0.109E+00
RMM:   6    -0.116228103988E+04   -0.15750E-01   -0.25494E-03  1247   0.412E-02    0.157E+00
RMM:   7    -0.116228275793E+04   -0.17181E-02   -0.43670E-03  1584   0.819E-02    0.224E+00
RMM:   8    -0.116227662258E+04    0.61353E-02   -0.17513E-03  1530   0.552E-02    0.172E+00
RMM:   9    -0.116227821537E+04   -0.15928E-02   -0.10178E-03  1130   0.353E-02    0.228E+00
RMM:  10    -0.116227332950E+04    0.48859E-02   -0.57049E-04  1120   0.312E-02    0.245E+00
RMM:  11    -0.116226843514E+04    0.48944E-02   -0.18595E-04  1012   0.155E-02    0.205E+00
RMM:  12    -0.116226880567E+04   -0.37052E-03   -0.97780E-05   957   0.905E-03    0.155E+00
RMM:  13    -0.116227152867E+04   -0.27230E-02   -0.31392E-04  1032   0.189E-02    0.871E-01
RMM:  14    -0.116227933792E+04   -0.78092E-02   -0.48294E-04  1067   0.248E-02    0.791E-01
RMM:  15    -0.116228093408E+04   -0.15962E-02   -0.18443E-04  1025   0.166E-02    0.673E-01
RMM:  16    -0.116228197519E+04   -0.10411E-02   -0.90678E-05   986   0.127E-02    0.752E-01
RMM:  17    -0.116228140982E+04    0.56538E-03   -0.88101E-05   909   0.121E-02    0.828E-01
RMM:  18    -0.116228090784E+04    0.50198E-03   -0.14524E-05   785   0.610E-03    0.789E-01
RMM:  19    -0.116227856728E+04    0.23406E-02   -0.61533E-04  1281   0.324E-02    0.338E-01
RMM:  20    -0.116228194657E+04   -0.33793E-02   -0.54073E-04  1209   0.310E-02    0.675E-02
RMM:  21    -0.116228476159E+04   -0.28150E-02   -0.21096E-04  1073   0.210E-02    0.248E-01
RMM:  22    -0.116228442845E+04    0.33314E-03   -0.12898E-04  1012   0.168E-02    0.245E-01
RMM:  23    -0.116228454131E+04   -0.11287E-03   -0.33464E-05   956   0.885E-03    0.894E-02
RMM:  24    -0.116228479873E+04   -0.25741E-03   -0.23899E-05   842   0.780E-03    0.755E-02
RMM:  25    -0.116228481996E+04   -0.21231E-04   -0.57641E-06   656   0.445E-03
   6 F= -.11693092E+04 E0= -.11692815E+04  d E =0.108698E+01  mag=    -0.0328
       N       E                     dE             d eps       ncg     rms          rms(c)
DAV:   1    -0.116229416976E+04   -0.93710E-02   -0.15612E-01  1728   0.490E-01    0.181E+00
RMM:   2    -0.116249629427E+04   -0.20212E+00   -0.60497E-02  1584   0.128E-01    0.787E+00
RMM:   3    -0.116220115155E+04    0.29514E+00   -0.25116E-02  1516   0.115E-01    0.252E+00
RMM:   4    -0.116225394113E+04   -0.52790E-01   -0.27083E-03  1206   0.430E-02    0.129E+00
RMM:   5    -0.116228870286E+04   -0.34762E-01   -0.49649E-03  1256   0.445E-02    0.291E+00
RMM:   6    -0.116227007753E+04    0.18625E-01   -0.24130E-03  1232   0.684E-02    0.314E-01
RMM:   7    -0.116229010382E+04   -0.20026E-01   -0.10961E-03  1234   0.429E-02    0.504E-01
RMM:   8    -0.116228895506E+04    0.11488E-02   -0.91510E-04  1579   0.352E-02    0.765E-01
RMM:   9    -0.116228774182E+04    0.12132E-02   -0.42636E-04  1106   0.329E-02    0.106E-01
RMM:  10    -0.116228961363E+04   -0.18718E-02   -0.13670E-04  1027   0.167E-02    0.969E-02
RMM:  11    -0.116228983059E+04   -0.21697E-03   -0.36995E-05   893   0.830E-03    0.123E-01
RMM:  12    -0.116228981500E+04    0.15594E-04   -0.30565E-05   920   0.910E-03
   7 F= -.11693143E+04 E0= -.11692866E+04  d E =0.108190E+01  mag=    -0.0390
       N       E                     dE             d eps       ncg     rms          rms(c)
DAV:   1    -0.116229263965E+04   -0.28091E-02   -0.39210E-02  1764   0.246E-01    0.842E-01
RMM:   2    -0.116235427264E+04   -0.61633E-01   -0.13507E-02  1521   0.621E-02    0.651E+00
RMM:   3    -0.116221313839E+04    0.14113E+00   -0.89808E-03  1342   0.878E-02    0.805E-01
RMM:   4    -0.116227866808E+04   -0.65530E-01   -0.23736E-03  1230   0.537E-02    0.230E-01
RMM:   5    -0.116229020888E+04   -0.11541E-01   -0.71634E-04  1190   0.323E-02    0.257E-01
RMM:   6    -0.116229237069E+04   -0.21618E-02   -0.18100E-04  1026   0.167E-02    0.115E+00
RMM:   7    -0.116228776955E+04    0.46011E-02   -0.29598E-04  1079   0.217E-02    0.143E+00
RMM:   8    -0.116228290329E+04    0.48663E-02   -0.36748E-04  1037   0.198E-02    0.174E-01
RMM:   9    -0.116229039988E+04   -0.74966E-02   -0.43360E-04  1118   0.267E-02    0.212E-01
RMM:  10    -0.116229118595E+04   -0.78607E-03   -0.44908E-05   915   0.851E-03    0.109E-01
RMM:  11    -0.116229158712E+04   -0.40118E-03   -0.26061E-05   853   0.723E-03    0.167E-01
RMM:  12    -0.116229152870E+04    0.58425E-04   -0.61598E-06   719   0.419E-03
   8 F= -.11693161E+04 E0= -.11692883E+04  d E =0.108015E+01  mag=    -0.0660
       N       E                     dE             d eps       ncg     rms          rms(c)
DAV:   1    -0.116231667291E+04   -0.25086E-01   -0.43389E+00  1656   0.220E+00    0.402E+00
RMM:   2    -0.116284500744E+04   -0.52833E+00   -0.33666E-01  1586   0.370E-01    0.858E+00
RMM:   3    -0.116228140566E+04    0.56360E+00   -0.74051E-02  1596   0.191E-01    0.664E+00
RMM:   4    -0.116219934102E+04    0.82065E-01   -0.35080E-02  1527   0.823E-02    0.183E+00
RMM:   5    -0.116230170419E+04   -0.10236E+00   -0.55522E-03  1287   0.915E-02    0.123E+00
RMM:   6    -0.116229975087E+04    0.19533E-02   -0.11573E-03  1181   0.343E-02    0.207E+00
RMM:   7    -0.116230441023E+04   -0.46594E-02   -0.80078E-03  1552   0.648E-02    0.397E+00
RMM:   8    -0.116226721883E+04    0.37191E-01   -0.30626E-03  1512   0.876E-02    0.132E+00
RMM:   9    -0.116229483842E+04   -0.27620E-01   -0.31456E-03  1251   0.423E-02    0.238E+00
RMM:  10    -0.116228679615E+04    0.80423E-02   -0.16723E-03  1205   0.638E-02    0.658E-01
RMM:  11    -0.116229655936E+04   -0.97632E-02   -0.57731E-04  1127   0.287E-02    0.424E-01
RMM:  12    -0.116229879289E+04   -0.22335E-02   -0.24120E-04  1096   0.210E-02    0.252E-01
RMM:  13    -0.116229986888E+04   -0.10760E-02   -0.12492E-04  1037   0.144E-02    0.688E-02
RMM:  14    -0.116230030325E+04   -0.43437E-03   -0.65463E-05  1006   0.129E-02    0.622E-02
RMM:  15    -0.116230033875E+04   -0.35503E-04   -0.14981E-05   909   0.622E-03
   9 F= -.11693262E+04 E0= -.11692989E+04  d E =-.101687E-01  mag=     0.0209
       N       E                     dE             d eps       ncg     rms          rms(c)
DAV:   1    -0.116230099802E+04   -0.69477E-03   -0.66345E-02  1800   0.271E-01    0.483E-01
RMM:   2    -0.116231989182E+04   -0.18894E-01   -0.54914E-03  1339   0.489E-02    0.368E+00
RMM:   3    -0.116226730910E+04    0.52583E-01   -0.36157E-03  1260   0.622E-02    0.305E-01
RMM:   4    -0.116229926116E+04   -0.31952E-01   -0.14835E-03  1226   0.455E-02    0.165E-01
RMM:   5    -0.116230084951E+04   -0.15884E-02   -0.20132E-04  1043   0.191E-02    0.232E-01
RMM:   6    -0.116230062095E+04    0.22856E-03   -0.19408E-04  1028   0.181E-02    0.209E-01
RMM:   7    -0.116230075602E+04   -0.13506E-03   -0.50184E-05   988   0.972E-03    0.417E-01
RMM:   8    -0.116229971464E+04    0.10414E-02   -0.87623E-05   971   0.130E-02    0.345E-01
RMM:   9    -0.116229984822E+04   -0.13359E-03   -0.77072E-06   731   0.477E-03    0.343E-01
RMM:  10    -0.116229985029E+04   -0.20644E-05   -0.53097E-06   650   0.373E-03
  10 F= -.11693256E+04 E0= -.11692979E+04  d E =-.951013E-02  mag=     0.0667
       N       E                     dE             d eps       ncg     rms          rms(c)
DAV:   1    -0.116230012778E+04   -0.27956E-03   -0.25679E+00  1692   0.171E+00    0.170E+00
RMM:   2    -0.116246865445E+04   -0.16853E+00   -0.84377E-02  1586   0.236E-01    0.786E+00
RMM:   3    -0.116220734684E+04    0.26131E+00   -0.23371E-02  1579   0.134E-01    0.196E+00
RMM:   4    -0.116227945129E+04   -0.72104E-01   -0.25810E-03  1268   0.643E-02    0.125E+00
RMM:   5    -0.116229245022E+04   -0.12999E-01   -0.11759E-03  1205   0.334E-02    0.773E-01
RMM:   6    -0.116233714931E+04   -0.44699E-01   -0.76339E-03  1456   0.567E-02    0.526E+00
RMM:   7    -0.116224497648E+04    0.92173E-01   -0.85658E-03  1581   0.955E-02    0.168E+00
RMM:   8    -0.116229552147E+04   -0.50545E-01   -0.29692E-03  1265   0.728E-02    0.923E-01
RMM:   9    -0.116229673304E+04   -0.12116E-02   -0.46822E-04  1127   0.306E-02    0.213E-01
RMM:  10    -0.116230128665E+04   -0.45536E-02   -0.47670E-04  1173   0.275E-02    0.995E-01
RMM:  11    -0.116229738011E+04    0.39065E-02   -0.29161E-04  1100   0.237E-02    0.118E+00
RMM:  12    -0.116229445435E+04    0.29258E-02   -0.11351E-04  1019   0.159E-02    0.103E+00
RMM:  13    -0.116229537927E+04   -0.92492E-03   -0.37262E-05   982   0.908E-03    0.101E+00
RMM:  14    -0.116229494241E+04    0.43686E-03   -0.12367E-04  1005   0.125E-02    0.498E-01
RMM:  15    -0.116229784071E+04   -0.28983E-02   -0.73089E-04  1284   0.341E-02    0.935E-02
RMM:  16    -0.116230038227E+04   -0.25416E-02   -0.40659E-04  1175   0.291E-02    0.427E-02
RMM:  17    -0.116230080023E+04   -0.41796E-03   -0.45116E-05  1004   0.114E-02    0.649E-02
RMM:  18    -0.116230076505E+04    0.35180E-04   -0.15714E-05   958   0.704E-03
  11 F= -.11693278E+04 E0= -.11693003E+04  d E =-.220591E-02  mag=    -0.0242
       N       E                     dE             d eps       ncg     rms          rms(c)
DAV:   1    -0.116230328817E+04   -0.24879E-02   -0.32147E-01  1764   0.603E-01    0.795E-01
RMM:   2    -0.116234648864E+04   -0.43200E-01   -0.16173E-02  1584   0.900E-02    0.482E+00
RMM:   3    -0.116225755606E+04    0.88933E-01   -0.71960E-03  1347   0.798E-02    0.305E-01
RMM:   4    -0.116230015749E+04   -0.42601E-01   -0.19033E-03  1237   0.522E-02    0.350E-01
RMM:   5    -0.116230261739E+04   -0.24599E-02   -0.32533E-04  1098   0.245E-02    0.259E-01
RMM:   6    -0.116230285100E+04   -0.23361E-03   -0.73483E-05   997   0.135E-02    0.117E-01
RMM:   7    -0.116230325380E+04   -0.40280E-03   -0.29697E-04  1133   0.213E-02    0.439E-01
RMM:   8    -0.116230256931E+04    0.68449E-03   -0.19929E-04  1014   0.183E-02    0.300E-01
RMM:   9    -0.116230299997E+04   -0.43067E-03   -0.16756E-04  1017   0.204E-02    0.635E-02
RMM:  10    -0.116230305419E+04   -0.54221E-04   -0.15289E-05   824   0.569E-03
  12 F= -.11693296E+04 E0= -.11693022E+04  d E =-.403512E-02  mag=    -0.0113
       N       E                     dE             d eps       ncg     rms          rms(c)
DAV:   1    -0.116230402191E+04   -0.10219E-02   -0.14292E-01  1728   0.520E-01    0.550E-01
RMM:   2    -0.116232841822E+04   -0.24396E-01   -0.92369E-03  1587   0.917E-02    0.403E+00
RMM:   3    -0.116226692718E+04    0.61491E-01   -0.44358E-03  1298   0.713E-02    0.503E-01
RMM:   4    -0.116230007090E+04   -0.33144E-01   -0.13575E-03  1235   0.471E-02    0.185E-01
RMM:   5    -0.116230315470E+04   -0.30838E-02   -0.27355E-04  1082   0.209E-02    0.919E-02
RMM:   6    -0.116230398927E+04   -0.83456E-03   -0.48354E-04  1288   0.275E-02    0.301E-01
RMM:   7    -0.116230350319E+04    0.48607E-03   -0.96339E-05  1004   0.158E-02    0.641E-02
RMM:   8    -0.116230390400E+04   -0.40081E-03   -0.58250E-05   991   0.125E-02    0.400E-02
RMM:   9    -0.116230390895E+04   -0.49501E-05   -0.17968E-05   963   0.673E-03
  13 F= -.11693304E+04 E0= -.11693030E+04  d E =-.787907E-03  mag=     0.0201
       N       E                     dE             d eps       ncg     rms          rms(c)
DAV:   1    -0.116230390905E+04   -0.50414E-05   -0.87076E-04  1728   0.411E-02    0.565E-02
RMM:   2    -0.116230418043E+04   -0.27139E-03   -0.78264E-05   953   0.788E-03    0.505E-01
RMM:   3    -0.116230291072E+04    0.12697E-02   -0.13024E-04   962   0.164E-02    0.991E-02
RMM:   4    -0.116230379353E+04   -0.88281E-03   -0.67819E-05   785   0.109E-02    0.213E-02
RMM:   5    -0.116230390646E+04   -0.11293E-03   -0.15267E-05   700   0.601E-03    0.190E-02
RMM:   6    -0.116230389245E+04    0.14007E-04   -0.19782E-06   517   0.329E-03
  14 F= -.11693304E+04 E0= -.11693029E+04  d E =-.776546E-03  mag=     0.0278
