       N       E                     dE             d eps       ncg     rms          rms(c)
DAV:   1     0.501019267025E+04    0.50102E+04   -0.16853E+05  1656   0.987E+02
DAV:   2     0.330339878398E+02   -0.49772E+04   -0.45680E+04  2268   0.223E+02
DAV:   3    -0.117781383370E+04   -0.12108E+04   -0.12024E+04  1872   0.122E+02
DAV:   4    -0.123245038417E+04   -0.54637E+02   -0.54223E+02  1872   0.350E+01
DAV:   5    -0.123391258191E+04   -0.14622E+01   -0.14578E+01  2088   0.542E+00    0.674E+01
RMM:   6    -0.121935905444E+04    0.14554E+02   -0.36666E+01  1484   0.693E+00    0.556E+01
RMM:   7    -0.120210723056E+04    0.17252E+02   -0.74024E+00  1445   0.363E+00    0.437E+01
RMM:   8    -0.117731088392E+04    0.24796E+02   -0.30715E+01  1441   0.716E+00    0.283E+01
RMM:   9    -0.116521754633E+04    0.12093E+02   -0.21502E+01  1441   0.628E+00    0.197E+01
RMM:  10    -0.116611059650E+04   -0.89305E+00   -0.22494E+01  1440   0.617E+00    0.981E+00
RMM:  11    -0.116545821472E+04    0.65238E+00   -0.12185E+00  1502   0.251E+00    0.757E+00
RMM:  12    -0.116516247626E+04    0.29574E+00   -0.25551E-01  1449   0.561E-01    0.619E+00
RMM:  13    -0.116488984848E+04    0.27263E+00   -0.16506E+00  1442   0.153E+00    0.228E+00
RMM:  14    -0.116466822840E+04    0.22162E+00   -0.26554E-01  1470   0.730E-01    0.139E+00
RMM:  15    -0.116466609424E+04    0.21342E-02   -0.42482E-02  1572   0.240E-01    0.123E+00
RMM:  16    -0.116466417780E+04    0.19164E-02   -0.72962E-03  1495   0.118E-01    0.945E-01
RMM:  17    -0.116466263074E+04    0.15471E-02   -0.49228E-03  1513   0.897E-02    0.667E-01
RMM:  18    -0.116466285531E+04   -0.22457E-03   -0.29641E-03  1454   0.767E-02    0.405E-01
RMM:  19    -0.116466271881E+04    0.13650E-03   -0.13607E-03  1337   0.581E-02    0.165E-01
RMM:  20    -0.116466257729E+04    0.14152E-03   -0.49953E-04  1121   0.262E-02    0.849E-02
RMM:  21    -0.116466261418E+04   -0.36891E-04   -0.17299E-04   944   0.217E-02
   1 F= -.11718875E+04 E0= -.11718831E+04  d E =-.117189E+04  mag=    -0.8738
       N       E                     dE             d eps       ncg     rms          rms(c)
DAV:   1    -0.116466147256E+04    0.11047E-02   -0.39825E-01  1620   0.109E+00    0.195E-01
RMM:   2    -0.116466213014E+04   -0.65758E-03   -0.10851E-02  1447   0.172E-01    0.211E-01
RMM:   3    -0.116466217484E+04   -0.44701E-04   -0.82670E-04  1295   0.543E-02
   2 F= -.11718874E+04 E0= -.11718829E+04  d E =0.134649E-03  mag=    -0.8716
       N       E                     dE             d eps       ncg     rms          rms(c)
DAV:   1    -0.116466266065E+04   -0.53051E-03   -0.94825E-02  1584   0.529E-01    0.169E-01
RMM:   2    -0.116466290706E+04   -0.24641E-03   -0.24830E-03  1440   0.839E-02    0.118E-01
RMM:   3    -0.116466289351E+04    0.13549E-04   -0.21548E-04   916   0.278E-02
   3 F= -.11718880E+04 E0= -.11718835E+04  d E =-.435428E-03  mag=    -0.8687
