       N       E                     dE             d eps       ncg     rms          rms(c)
DAV:   1     0.460075619548E+04    0.46008E+04   -0.17424E+05  1908   0.904E+02
DAV:   2    -0.130472909957E+03   -0.47312E+04   -0.43022E+04  2520   0.203E+02
DAV:   3    -0.119229754828E+04   -0.10618E+04   -0.10561E+04  2160   0.105E+02
DAV:   4    -0.123384397740E+04   -0.41546E+02   -0.41367E+02  2052   0.271E+01
DAV:   5    -0.123490760916E+04   -0.10636E+01   -0.10618E+01  2412   0.404E+00    0.658E+01
RMM:   6    -0.121821611380E+04    0.16691E+02   -0.27154E+01  1584   0.478E+00    0.524E+01
RMM:   7    -0.120403045712E+04    0.14186E+02   -0.77660E+00  1584   0.305E+00    0.425E+01
RMM:   8    -0.117663577176E+04    0.27395E+02   -0.32585E+01  1584   0.646E+00    0.271E+01
RMM:   9    -0.116547523400E+04    0.11161E+02   -0.20530E+01  1584   0.514E+00    0.186E+01
RMM:  10    -0.116632274872E+04   -0.84751E+00   -0.18446E+01  1584   0.480E+00    0.876E+00
RMM:  11    -0.116624940673E+04    0.73342E-01   -0.19947E+00  1623   0.141E+00    0.647E+00
RMM:  12    -0.116563418723E+04    0.61522E+00   -0.62159E-01  1584   0.858E-01    0.355E+00
RMM:  13    -0.116514916023E+04    0.48503E+00   -0.33775E-01  1584   0.587E-01    0.190E+00
RMM:  14    -0.116504496139E+04    0.10420E+00   -0.28957E-01  1584   0.550E-01    0.650E-01
RMM:  15    -0.116504543830E+04   -0.47691E-03   -0.21122E-02  1627   0.172E-01    0.431E-01
RMM:  16    -0.116504450257E+04    0.93573E-03   -0.20416E-03  1642   0.513E-02    0.355E-01
RMM:  17    -0.116504322069E+04    0.12819E-02   -0.24721E-03  1586   0.528E-02    0.165E-01
RMM:  18    -0.116504318417E+04    0.36519E-04   -0.56561E-04  1231   0.255E-02
   1 F= -.11721210E+04 E0= -.11721210E+04  d E =-.117212E+04  mag=    -0.0002
       N       E                     dE             d eps       ncg     rms          rms(c)
DAV:   1    -0.116504119869E+04    0.20220E-02   -0.85751E-01  1692   0.144E+00    0.392E-01
RMM:   2    -0.116504476803E+04   -0.35693E-02   -0.42576E-02  1586   0.215E-01    0.369E-01
RMM:   3    -0.116504408098E+04    0.68705E-03   -0.16336E-03  1425   0.393E-02    0.325E-01
RMM:   4    -0.116504323550E+04    0.84548E-03   -0.37204E-03  1584   0.662E-02    0.102E-01
RMM:   5    -0.116504331876E+04   -0.83256E-04   -0.47785E-04  1347   0.256E-02
   2 F= -.11721211E+04 E0= -.11721211E+04  d E =-.612490E-04  mag=     0.0000
       N       E                     dE             d eps       ncg     rms          rms(c)
DAV:   1    -0.116504405479E+04   -0.81929E-03   -0.23660E-01  1728   0.758E-01    0.193E-01
RMM:   2    -0.116504493678E+04   -0.88199E-03   -0.11088E-02  1580   0.110E-01    0.180E-01
RMM:   3    -0.116504469361E+04    0.24318E-03   -0.38015E-04  1103   0.198E-02    0.154E-01
RMM:   4    -0.116504442269E+04    0.27092E-03   -0.12714E-03  1584   0.387E-02    0.480E-02
RMM:   5    -0.116504443895E+04   -0.16262E-04   -0.94798E-05  1024   0.126E-02
   3 F= -.11721222E+04 E0= -.11721222E+04  d E =-.121758E-02  mag=     0.0000
       N       E                     dE             d eps       ncg     rms          rms(c)
DAV:   1    -0.116504471152E+04   -0.28883E-03   -0.36330E-01  1800   0.100E+00    0.238E-01
RMM:   2    -0.116504552300E+04   -0.81148E-03   -0.13658E-02  1584   0.141E-01    0.205E-01
RMM:   3    -0.116504485929E+04    0.66372E-03   -0.66506E-04  1367   0.303E-02    0.158E-01
RMM:   4    -0.116504433602E+04    0.52327E-03   -0.23435E-03  1584   0.527E-02    0.553E-02
RMM:   5    -0.116504433981E+04   -0.37902E-05   -0.13658E-04  1060   0.152E-02
   4 F= -.11721221E+04 E0= -.11721221E+04  d E =0.110870E-03  mag=     0.0000
       N       E                     dE             d eps       ncg     rms          rms(c)
DAV:   1    -0.116504520267E+04   -0.86665E-03   -0.10631E-01  1800   0.542E-01    0.126E-01
RMM:   2    -0.116504537491E+04   -0.17224E-03   -0.37912E-03  1564   0.741E-02    0.109E-01
RMM:   3    -0.116504512820E+04    0.24671E-03   -0.20427E-04  1047   0.174E-02    0.828E-02
RMM:   4    -0.116504493807E+04    0.19013E-03   -0.88518E-04  1572   0.325E-02    0.289E-02
RMM:   5    -0.116504493841E+04   -0.34208E-06   -0.30327E-05   984   0.783E-03
   5 F= -.11721227E+04 E0= -.11721227E+04  d E =-.493632E-03  mag=     0.0000
