       N       E                     dE             d eps       ncg     rms          rms(c)
DAV:   1     0.478804745778E+04    0.47880E+04   -0.17590E+05  1908   0.916E+02
DAV:   2    -0.712868901253E+02   -0.48593E+04   -0.44456E+04  2556   0.215E+02
DAV:   3    -0.118730263871E+04   -0.11160E+04   -0.11109E+04  2088   0.111E+02
DAV:   4    -0.124160966652E+04   -0.54307E+02   -0.54058E+02  2196   0.359E+01
DAV:   5    -0.124287742468E+04   -0.12678E+01   -0.12620E+01  2196   0.464E+00    0.697E+01
RMM:   6    -0.122740055678E+04    0.15477E+02   -0.87249E+00  1789   0.363E+00    0.572E+01
RMM:   7    -0.118988035043E+04    0.37520E+02   -0.96059E+01  1856   0.119E+01    0.339E+01
RMM:   8    -0.118158574874E+04    0.82946E+01   -0.87675E+00  1871   0.810E+00    0.266E+01
RMM:   9    -0.117799557019E+04    0.35902E+01   -0.25716E+01  1649   0.594E+00    0.190E+01
RMM:  10    -0.117876534224E+04   -0.76977E+00   -0.76790E+00  1786   0.707E+00    0.131E+01
RMM:  11    -0.117681028389E+04    0.19551E+01   -0.38306E+00  1922   0.249E+00    0.734E+00
RMM:  12    -0.117646595074E+04    0.34433E+00   -0.81239E-01  1805   0.198E+00    0.638E+00
RMM:  13    -0.117616635191E+04    0.29960E+00   -0.49158E-01  1699   0.894E-01    0.513E+00
RMM:  14    -0.117587211503E+04    0.29424E+00   -0.97858E-01  1918   0.155E+00    0.251E+00
RMM:  15    -0.117586540462E+04    0.67104E-02   -0.96846E-02  1857   0.640E-01    0.170E+00
RMM:  16    -0.117587565751E+04   -0.10253E-01   -0.56115E-02  1849   0.344E-01    0.959E-01
RMM:  17    -0.117588301508E+04   -0.73576E-02   -0.23844E-02  1719   0.260E-01    0.712E-01
RMM:  18    -0.117588335170E+04   -0.33663E-03   -0.74694E-03  1792   0.219E-01    0.533E-01
RMM:  19    -0.117588160215E+04    0.17496E-02   -0.71918E-03  1766   0.114E-01    0.492E-01
RMM:  20    -0.117588172157E+04   -0.11942E-03   -0.10879E-03  1439   0.762E-02    0.416E-01
RMM:  21    -0.117588182700E+04   -0.10543E-03   -0.47030E-04  1301   0.458E-02    0.319E-01
RMM:  22    -0.117588188658E+04   -0.59580E-04   -0.18053E-04  1098   0.390E-02
   1 F= -.11830003E+04 E0= -.11830003E+04  d E =-.118300E+04  mag=     0.9836
       N       E                     dE             d eps       ncg     rms          rms(c)
DAV:   1    -0.117588116662E+04    0.66038E-03   -0.19888E-01  1728   0.734E-01    0.253E-01
RMM:   2    -0.117588196109E+04   -0.79447E-03   -0.92574E-03  1874   0.135E-01    0.185E-01
RMM:   3    -0.117588183642E+04    0.12467E-03   -0.89889E-04  1443   0.969E-02    0.166E-01
RMM:   4    -0.117588172654E+04    0.10988E-03   -0.30182E-04  1180   0.340E-02    0.130E-01
RMM:   5    -0.117588168033E+04    0.46214E-04   -0.48280E-04  1320   0.425E-02
   2 F= -.11830001E+04 E0= -.11830001E+04  d E =0.212166E-03  mag=     1.0053
       N       E                     dE             d eps       ncg     rms          rms(c)
DAV:   1    -0.117588224312E+04   -0.51657E-03   -0.62280E-02  1800   0.408E-01    0.829E-02
RMM:   2    -0.117588239904E+04   -0.15592E-03   -0.23705E-03  1704   0.693E-02    0.907E-02
RMM:   3    -0.117588238251E+04    0.16530E-04   -0.26922E-04  1089   0.608E-02
   3 F= -.11830008E+04 E0= -.11830008E+04  d E =-.492441E-03  mag=     1.0014
