       N       E                     dE             d eps       ncg     rms          rms(c)
DAV:   1     0.479496838014E+04    0.47950E+04   -0.17725E+05  1856   0.946E+02
DAV:   2    -0.639760126575E+02   -0.48589E+04   -0.44452E+04  2432   0.215E+02
DAV:   3    -0.119559723886E+04   -0.11316E+04   -0.11258E+04  1984   0.113E+02
DAV:   4    -0.124463780631E+04   -0.49041E+02   -0.48705E+02  1952   0.325E+01
DAV:   5    -0.124608096291E+04   -0.14432E+01   -0.14389E+01  2208   0.511E+00    0.723E+01
RMM:   6    -0.122887040325E+04    0.17211E+02   -0.11298E+01  1574   0.436E+00    0.532E+01
RMM:   7    -0.120326116807E+04    0.25609E+02   -0.38075E+01  1563   0.748E+00    0.345E+01
RMM:   8    -0.118610253214E+04    0.17159E+02   -0.22145E+01  1556   0.656E+00    0.259E+01
RMM:   9    -0.117823072019E+04    0.78718E+01   -0.20228E+01  1555   0.612E+00    0.171E+01
RMM:  10    -0.117920795205E+04   -0.97723E+00   -0.12096E+01  1580   0.497E+00    0.950E+00
RMM:  11    -0.117960414360E+04   -0.39619E+00   -0.23664E+00  1807   0.252E+00    0.726E+00
RMM:  12    -0.117873741436E+04    0.86673E+00   -0.30742E+00  1538   0.221E+00    0.208E+00
RMM:  13    -0.117874612660E+04   -0.87122E-02   -0.20863E-01  1541   0.893E-01    0.974E-01
RMM:  14    -0.117874244607E+04    0.36805E-02   -0.50893E-02  1624   0.375E-01    0.693E-01
RMM:  15    -0.117873664352E+04    0.58025E-02   -0.29965E-02  1590   0.244E-01    0.442E-01
RMM:  16    -0.117873660026E+04    0.43258E-04   -0.19963E-02  1591   0.199E-01    0.174E-01
RMM:  17    -0.117873642333E+04    0.17694E-03   -0.37368E-03  1661   0.104E-01    0.124E-01
RMM:  18    -0.117873644578E+04   -0.22452E-04   -0.83680E-04  1705   0.450E-02    0.115E-01
RMM:  19    -0.117873649315E+04   -0.47373E-04   -0.23711E-04  1619   0.241E-02    0.986E-02
RMM:  20    -0.117873660505E+04   -0.11190E-03   -0.20259E-04  1548   0.210E-02    0.613E-02
RMM:  21    -0.117873660879E+04   -0.37396E-05   -0.39456E-05  1781   0.103E-02    0.463E-02
RMM:  22    -0.117873660528E+04    0.35085E-05   -0.14657E-05  1550   0.568E-03    0.342E-02
RMM:  23    -0.117873660683E+04   -0.15461E-05   -0.11898E-05  1536   0.507E-03    0.177E-02
RMM:  24    -0.117873660768E+04   -0.84593E-06   -0.70267E-06  1388   0.348E-03
   1 F= -.11858076E+04 E0= -.11858076E+04  d E =-.118581E+04  mag=     0.9997
       N       E                     dE             d eps       ncg     rms          rms(c)
DAV:   1    -0.117873518760E+04    0.14192E-02   -0.28833E-01  1664   0.922E-01    0.128E-01
RMM:   2    -0.117873586843E+04   -0.68082E-03   -0.82921E-03  1559   0.145E-01    0.159E-01
RMM:   3    -0.117873602626E+04   -0.15783E-03   -0.18498E-03  1873   0.630E-02    0.140E-01
RMM:   4    -0.117873597722E+04    0.49041E-04   -0.24114E-04  1852   0.230E-02    0.139E-01
RMM:   5    -0.117873579696E+04    0.18026E-03   -0.41823E-04  1549   0.238E-02    0.101E-01
RMM:   6    -0.117873585451E+04   -0.57552E-04   -0.78890E-04  1548   0.324E-02    0.792E-02
RMM:   7    -0.117873579937E+04    0.55136E-04   -0.73375E-05  1554   0.152E-02    0.682E-02
RMM:   8    -0.117873579171E+04    0.76608E-05   -0.49979E-05  1552   0.927E-03    0.536E-02
RMM:   9    -0.117873579316E+04   -0.14454E-05   -0.10407E-05  1615   0.543E-03    0.454E-02
RMM:  10    -0.117873578612E+04    0.70381E-05   -0.99167E-06  1477   0.394E-03    0.371E-02
RMM:  11    -0.117873578349E+04    0.26245E-05   -0.47649E-06  1319   0.299E-03    0.304E-02
RMM:  12    -0.117873578300E+04    0.49555E-06   -0.12494E-06  1023   0.211E-03
   2 F= -.11858075E+04 E0= -.11858075E+04  d E =0.154263E-03  mag=     1.0000
       N       E                     dE             d eps       ncg     rms          rms(c)
DAV:   1    -0.117873673298E+04   -0.94948E-03   -0.81777E-02  1792   0.489E-01    0.727E-02
RMM:   2    -0.117873684529E+04   -0.11231E-03   -0.17587E-03  1542   0.733E-02    0.751E-02
RMM:   3    -0.117873686005E+04   -0.14760E-04   -0.34778E-04  1818   0.306E-02    0.647E-02
RMM:   4    -0.117873682946E+04    0.30585E-04   -0.62964E-05  1693   0.121E-02    0.589E-02
RMM:   5    -0.117873679209E+04    0.37367E-04   -0.17702E-04  1549   0.160E-02    0.297E-02
RMM:   6    -0.117873679795E+04   -0.58535E-05   -0.63544E-05  1645   0.107E-02    0.237E-02
RMM:   7    -0.117873679400E+04    0.39424E-05   -0.97862E-06  1521   0.513E-03    0.157E-02
RMM:   8    -0.117873679612E+04   -0.21203E-05   -0.60118E-06  1472   0.348E-03    0.112E-02
RMM:   9    -0.117873679552E+04    0.60505E-06   -0.18860E-06  1028   0.231E-03
   3 F= -.11858081E+04 E0= -.11858081E+04  d E =-.501401E-03  mag=     1.0000
       N       E                     dE             d eps       ncg     rms          rms(c)
DAV:   1    -0.117873656555E+04    0.23058E-03   -0.20871E-01  1856   0.785E-01    0.105E-01
RMM:   2    -0.117873699577E+04   -0.43022E-03   -0.51334E-03  1536   0.107E-01    0.110E-01
RMM:   3    -0.117873705699E+04   -0.61223E-04   -0.84732E-04  1799   0.430E-02    0.859E-02
RMM:   4    -0.117873705049E+04    0.64967E-05   -0.13516E-04  1696   0.168E-02    0.793E-02
RMM:   5    -0.117873704089E+04    0.96054E-05   -0.12911E-04  1544   0.150E-02    0.443E-02
RMM:   6    -0.117873705356E+04   -0.12670E-04   -0.60957E-05  1577   0.106E-02    0.310E-02
RMM:   7    -0.117873706460E+04   -0.11039E-04   -0.11712E-05  1606   0.579E-03    0.206E-02
RMM:   8    -0.117873706916E+04   -0.45598E-05   -0.41874E-06  1294   0.310E-03    0.161E-02
RMM:   9    -0.117873706908E+04    0.75670E-07   -0.27262E-06  1097   0.254E-03
   4 F= -.11858087E+04 E0= -.11858087E+04  d E =-.593895E-03  mag=     1.0000
       N       E                     dE             d eps       ncg     rms          rms(c)
DAV:   1    -0.117873707257E+04   -0.34157E-05   -0.23521E-05  1888   0.880E-03    0.823E-03
RMM:   2    -0.117873707270E+04   -0.12486E-06   -0.63584E-07  1000   0.115E-03
   5 F= -.11858087E+04 E0= -.11858087E+04  d E =-.593877E-03  mag=     1.0000
       N       E                     dE             d eps       ncg     rms          rms(c)
DAV:   1    -0.117873707632E+04   -0.37452E-05   -0.10637E-01  1728   0.524E-01    0.744E-02
RMM:   2    -0.117873725727E+04   -0.18095E-03   -0.24329E-03  1542   0.747E-02    0.107E-01
RMM:   3    -0.117873728642E+04   -0.29157E-04   -0.43344E-04  1802   0.299E-02    0.828E-02
RMM:   4    -0.117873728426E+04    0.21675E-05   -0.68279E-05  1699   0.115E-02    0.852E-02
RMM:   5    -0.117873728256E+04    0.16926E-05   -0.40815E-05  1544   0.846E-03    0.663E-02
RMM:   6    -0.117873730232E+04   -0.19752E-04   -0.69233E-05  1563   0.101E-02    0.499E-02
RMM:   7    -0.117873730790E+04   -0.55861E-05   -0.80421E-06  1547   0.484E-03    0.412E-02
RMM:   8    -0.117873731065E+04   -0.27502E-05   -0.38288E-06  1256   0.286E-03    0.330E-02
RMM:   9    -0.117873730960E+04    0.10520E-05   -0.14104E-06  1027   0.199E-03    0.291E-02
RMM:  10    -0.117873730893E+04    0.67266E-06   -0.10641E-06  1022   0.175E-03
   6 F= -.11858091E+04 E0= -.11858091E+04  d E =-.445989E-03  mag=     1.0000
