       N       E                     dE             d eps       ncg     rms          rms(c)
DAV:   1     0.480300677793E+04    0.48030E+04   -0.17530E+05  1944   0.917E+02
DAV:   2     0.332403522227E+01   -0.47997E+04   -0.43703E+04  2556   0.209E+02
DAV:   3    -0.118920594210E+04   -0.11925E+04   -0.11860E+04  2268   0.113E+02
DAV:   4    -0.124415466800E+04   -0.54949E+02   -0.54675E+02  2376   0.321E+01
DAV:   5    -0.124548824811E+04   -0.13336E+01   -0.13298E+01  2304   0.471E+00    0.795E+01
RMM:   6    -0.122709011041E+04    0.18398E+02   -0.97861E+00  2114   0.489E+00    0.602E+01
RMM:   7    -0.119353432917E+04    0.33556E+02   -0.61317E+01  2126   0.129E+01    0.346E+01
RMM:   8    -0.118214269305E+04    0.11392E+02   -0.20084E+01  2078   0.883E+00    0.260E+01
RMM:   9    -0.117626404852E+04    0.58786E+01   -0.13558E+01  2099   0.568E+00    0.209E+01
RMM:  10    -0.117633599997E+04   -0.71951E-01   -0.10006E+01  2099   0.458E+00    0.140E+01
RMM:  11    -0.117696565777E+04   -0.62966E+00   -0.10977E+00  2075   0.270E+00    0.785E+00
RMM:  12    -0.117679465849E+04    0.17100E+00   -0.27984E-01  2128   0.121E+00    0.632E+00
RMM:  13    -0.117631715196E+04    0.47751E+00   -0.11517E+00  2087   0.138E+00    0.187E+00
RMM:  14    -0.117630302290E+04    0.14129E-01   -0.24052E-01  2054   0.176E+00    0.125E+00
RMM:  15    -0.117629650116E+04    0.65217E-02   -0.46690E-02  2167   0.404E-01    0.436E-01
RMM:  16    -0.117629622296E+04    0.27820E-03   -0.16255E-02  2036   0.194E-01    0.311E-01
RMM:  17    -0.117629605242E+04    0.17055E-03   -0.25694E-03  1511   0.126E-01    0.209E-01
RMM:  18    -0.117629589634E+04    0.15607E-03   -0.23833E-03  1544   0.147E-01    0.152E-01
RMM:  19    -0.117629601138E+04   -0.11504E-03   -0.65771E-04  1250   0.148E-01    0.121E-01
RMM:  20    -0.117629608797E+04   -0.76590E-04   -0.55414E-04  1310   0.168E-01
   1 F= -.11836033E+04 E0= -.11836028E+04  d E =-.118360E+04  mag=     0.0174
       N       E                     dE             d eps       ncg     rms          rms(c)
DAV:   1    -0.117627688927E+04    0.19122E-01   -0.20069E+00  2196   0.290E+00    0.194E+00
RMM:   2    -0.117628516208E+04   -0.82728E-02   -0.10095E-01  2339   0.367E-01    0.194E+00
RMM:   3    -0.117628530298E+04   -0.14089E-03   -0.58939E-03  1381   0.514E-01    0.183E+00
RMM:   4    -0.117628456277E+04    0.74021E-03   -0.25198E-03  1584   0.125E-01    0.136E+00
RMM:   5    -0.117628442835E+04    0.13442E-03   -0.85094E-03  2002   0.221E-01    0.257E-01
RMM:   6    -0.117628451168E+04   -0.83335E-04   -0.11164E-03  1251   0.970E-02    0.141E-01
RMM:   7    -0.117628437061E+04    0.14108E-03   -0.20233E-04  1140   0.102E-01    0.111E-01
RMM:   8    -0.117628426171E+04    0.10890E-03   -0.23894E-05  1158   0.148E-01    0.108E-01
RMM:   9    -0.117628422151E+04    0.40198E-04   -0.23268E-04  1294   0.177E-01
   2 F= -.11835929E+04 E0= -.11835925E+04  d E =0.104162E-01  mag=     0.0081
       N       E                     dE             d eps       ncg     rms          rms(c)
DAV:   1    -0.117629293596E+04   -0.86743E-02   -0.11443E+00  2088   0.221E+00    0.141E+00
RMM:   2    -0.117629755301E+04   -0.46170E-02   -0.57750E-02  2289   0.278E-01    0.142E+00
RMM:   3    -0.117629760147E+04   -0.48469E-04   -0.36677E-03  1340   0.448E-01    0.133E+00
RMM:   4    -0.117629699401E+04    0.60747E-03   -0.13673E-03  1421   0.110E-01    0.970E-01
RMM:   5    -0.117629683240E+04    0.16160E-03   -0.60264E-03  1959   0.197E-01    0.237E-01
RMM:   6    -0.117629694216E+04   -0.10976E-03   -0.85844E-04  1225   0.101E-01    0.132E-01
RMM:   7    -0.117629684517E+04    0.96988E-04   -0.24584E-04  1165   0.103E-01
   3 F= -.11836044E+04 E0= -.11836040E+04  d E =-.111033E-02  mag=     0.0092
