       N       E                     dE             d eps       ncg     rms          rms(c)
DAV:   1     0.492431595183E+04    0.49243E+04   -0.17143E+05  1836   0.913E+02
DAV:   2    -0.412060589685E+02   -0.49655E+04   -0.45388E+04  2520   0.209E+02
DAV:   3    -0.117493518947E+04   -0.11337E+04   -0.11289E+04  2160   0.110E+02
DAV:   4    -0.122014507633E+04   -0.45210E+02   -0.45010E+02  2052   0.288E+01
DAV:   5    -0.122128590759E+04   -0.11408E+01   -0.11392E+01  2412   0.425E+00    0.605E+01
RMM:   6    -0.120923573780E+04    0.12050E+02   -0.75812E+00  1584   0.316E+00    0.496E+01
RMM:   7    -0.118677361892E+04    0.22462E+02   -0.20302E+01  1584   0.525E+00    0.373E+01
RMM:   8    -0.116600098041E+04    0.20773E+02   -0.24104E+01  1584   0.563E+00    0.266E+01
RMM:   9    -0.115925101419E+04    0.67500E+01   -0.25394E+01  1584   0.573E+00    0.149E+01
RMM:  10    -0.116030577658E+04   -0.10548E+01   -0.86509E+00  1585   0.344E+00    0.906E+00
RMM:  11    -0.115959658585E+04    0.70919E+00   -0.12613E+00  1596   0.108E+00    0.564E+00
RMM:  12    -0.115927586977E+04    0.32072E+00   -0.11384E+00  1584   0.113E+00    0.340E+00
RMM:  13    -0.115915936687E+04    0.11650E+00   -0.22811E-01  1585   0.458E-01    0.139E+00
RMM:  14    -0.115916202848E+04   -0.26616E-02   -0.11631E-02  1597   0.133E-01    0.974E-01
RMM:  15    -0.115916906015E+04   -0.70317E-02   -0.18123E-02  1587   0.132E-01    0.515E-01
RMM:  16    -0.115916926433E+04   -0.20418E-03   -0.90426E-03  1584   0.104E-01    0.307E-01
RMM:  17    -0.115916888991E+04    0.37442E-03   -0.14269E-03  1423   0.403E-02    0.223E-01
RMM:  18    -0.115916900154E+04   -0.11163E-03   -0.11277E-03  1269   0.305E-02    0.141E-01
RMM:  19    -0.115916910755E+04   -0.10601E-03   -0.65447E-04  1529   0.275E-02    0.123E-01
RMM:  20    -0.115916911808E+04   -0.10533E-04   -0.85421E-05  1022   0.109E-02
   1 F= -.11662930E+04 E0= -.11662930E+04  d E =-.116629E+04  mag=     0.9962
       N       E                     dE             d eps       ncg     rms          rms(c)
DAV:   1    -0.115916816221E+04    0.94534E-03   -0.44169E-01  1620   0.103E+00    0.242E-01
RMM:   2    -0.115916929464E+04   -0.11324E-02   -0.13787E-02  1584   0.158E-01    0.214E-01
RMM:   3    -0.115916914558E+04    0.14906E-03   -0.74198E-04  1468   0.355E-02    0.188E-01
RMM:   4    -0.115916883837E+04    0.30721E-03   -0.13009E-03  1550   0.403E-02    0.139E-01
RMM:   5    -0.115916879320E+04    0.45174E-04   -0.33058E-04  1092   0.211E-02
   2 F= -.11662928E+04 E0= -.11662928E+04  d E =0.209714E-03  mag=     0.9995
       N       E                     dE             d eps       ncg     rms          rms(c)
DAV:   1    -0.115917019437E+04   -0.13560E-02   -0.12610E-01  1764   0.546E-01    0.132E-01
RMM:   2    -0.115917037352E+04   -0.17915E-03   -0.30950E-03  1584   0.804E-02    0.116E-01
RMM:   3    -0.115917024525E+04    0.12827E-03   -0.16013E-04  1061   0.179E-02    0.917E-02
RMM:   4    -0.115917010859E+04    0.13666E-03   -0.75641E-04  1549   0.312E-02    0.380E-02
RMM:   5    -0.115917013140E+04   -0.22813E-04   -0.29727E-05  1000   0.833E-03
   3 F= -.11662941E+04 E0= -.11662941E+04  d E =-.106594E-02  mag=     1.0000
       N       E                     dE             d eps       ncg     rms          rms(c)
DAV:   1    -0.115916993341E+04    0.17518E-03   -0.43646E-01  1620   0.865E-01    0.206E-01
RMM:   2    -0.115917039318E+04   -0.45977E-03   -0.82320E-03  1584   0.115E-01    0.160E-01
RMM:   3    -0.115917043174E+04   -0.38560E-04   -0.39661E-04  1164   0.261E-02
   4 F= -.11662946E+04 E0= -.11662946E+04  d E =-.520050E-03  mag=     1.0000
       N       E                     dE             d eps       ncg     rms          rms(c)
DAV:   1    -0.115917039098E+04    0.21957E-05   -0.38978E-03  1800   0.863E-02    0.698E-02
RMM:   2    -0.115917046268E+04   -0.71700E-04   -0.15515E-04  1009   0.184E-02
   5 F= -.11662946E+04 E0= -.11662946E+04  d E =-.533178E-03  mag=     1.0000
