       N       E                     dE             d eps       ncg     rms          rms(c)
DAV:   1     0.480486272683E+04    0.48049E+04   -0.17565E+05  1856   0.943E+02
DAV:   2    -0.606832567193E+02   -0.48655E+04   -0.44371E+04  2464   0.210E+02
DAV:   3    -0.119993609247E+04   -0.11393E+04   -0.11347E+04  2048   0.111E+02
DAV:   4    -0.124633832417E+04   -0.46402E+02   -0.46150E+02  1952   0.298E+01
DAV:   5    -0.124753299648E+04   -0.11947E+01   -0.11918E+01  2304   0.446E+00    0.699E+01
RMM:   6    -0.123227948882E+04    0.15254E+02   -0.89060E+00  1577   0.356E+00    0.558E+01
RMM:   7    -0.119590659549E+04    0.36373E+02   -0.10335E+02  1693   0.115E+01    0.304E+01
RMM:   8    -0.118818362422E+04    0.77230E+01   -0.10935E+01  1602   0.492E+00    0.262E+01
RMM:   9    -0.118384571095E+04    0.43379E+01   -0.30161E+01  1626   0.658E+00    0.178E+01
RMM:  10    -0.118311321482E+04    0.73250E+00   -0.11596E+01  1550   0.457E+00    0.122E+01
RMM:  11    -0.118122505740E+04    0.18882E+01   -0.34850E+00  1656   0.228E+00    0.730E+00
RMM:  12    -0.118105903603E+04    0.16602E+00   -0.64213E-01  1746   0.105E+00    0.471E+00
RMM:  13    -0.118055514073E+04    0.50390E+00   -0.11949E+00  1542   0.132E+00    0.243E+00
RMM:  14    -0.118055079199E+04    0.43487E-02   -0.26910E-01  1542   0.714E-01    0.342E+00
RMM:  15    -0.118056679653E+04   -0.16005E-01   -0.71110E-02  1684   0.317E-01    0.901E+00
RMM:  16    -0.118056583926E+04    0.95727E-03   -0.31989E-02  1612   0.227E-01    0.984E+00
RMM:  17    -0.118057054414E+04   -0.47049E-02   -0.17144E-02  1582   0.154E-01    0.836E+00
RMM:  18    -0.118057353145E+04   -0.29873E-02   -0.55342E-03  1818   0.715E-02    0.846E+00
RMM:  19    -0.118057312660E+04    0.40485E-03   -0.86095E-03  1613   0.949E-02    0.789E+00
RMM:  20    -0.118057427748E+04   -0.11509E-02   -0.21400E-02  1838   0.160E-01    0.354E+00
RMM:  21    -0.118057282346E+04    0.14540E-02   -0.71254E-03  1723   0.820E-02    0.191E+00
RMM:  22    -0.118057442539E+04   -0.16019E-02   -0.43092E-03  1713   0.642E-02    0.731E-01
RMM:  23    -0.118057306679E+04    0.13586E-02   -0.40841E-03  1728   0.667E-02    0.102E+00
RMM:  24    -0.118057300726E+04    0.59526E-04   -0.15221E-03  1713   0.295E-02    0.825E-01
RMM:  25    -0.118057300245E+04    0.48181E-05   -0.74606E-04  1710   0.173E-02    0.859E-01
RMM:  26    -0.118057319778E+04   -0.19533E-03   -0.61909E-04  1643   0.207E-02    0.873E-01
RMM:  27    -0.118057339363E+04   -0.19585E-03   -0.58633E-04  1634   0.179E-02    0.764E-01
RMM:  28    -0.118057342704E+04   -0.33406E-04   -0.33196E-04  1780   0.714E-03    0.778E-01
RMM:  29    -0.118057345069E+04   -0.23651E-04   -0.22861E-04  1470   0.348E-03    0.792E-01
RMM:  30    -0.118057346729E+04   -0.16600E-04   -0.18932E-04  1431   0.373E-03    0.795E-01
RMM:  31    -0.118057347955E+04   -0.12266E-04   -0.16194E-04  1701   0.577E-03    0.871E-01
RMM:  32    -0.118057348778E+04   -0.82265E-05   -0.11226E-04  1291   0.277E-03    0.927E-01
RMM:  33    -0.118057349629E+04   -0.85067E-05   -0.83265E-05  1078   0.148E-03    0.964E-01
RMM:  34    -0.118057350479E+04   -0.85003E-05   -0.72811E-05  1049   0.125E-03    0.101E+00
RMM:  35    -0.118057350980E+04   -0.50093E-05   -0.51997E-05   933   0.805E-04    0.104E+00
RMM:  36    -0.118057351476E+04   -0.49653E-05   -0.47481E-05   724   0.631E-04    0.107E+00
RMM:  37    -0.118057351845E+04   -0.36883E-05   -0.32521E-05   791   0.606E-04    0.110E+00
RMM:  38    -0.118057352149E+04   -0.30403E-05   -0.30736E-05   617   0.505E-04    0.113E+00
RMM:  39    -0.118057352416E+04   -0.26719E-05   -0.20595E-05   771   0.532E-04    0.115E+00
RMM:  40    -0.118057352603E+04   -0.18647E-05   -0.19159E-05   851   0.635E-04    0.119E+00
RMM:  41    -0.118057352459E+04    0.14420E-05   -0.13819E-05  1024   0.124E-03    0.122E+00
RMM:  42    -0.118057352298E+04    0.16081E-05   -0.12087E-05  1045   0.145E-03    0.123E+00
RMM:  43    -0.118057352070E+04    0.22736E-05   -0.85311E-06  1060   0.143E-03    0.122E+00
RMM:  44    -0.118057352072E+04   -0.14821E-07   -0.69885E-06  1002   0.800E-04
   1 F= -.11879010E+04 E0= -.11878986E+04  d E =-.118790E+04  mag=     0.0589
       N       E                     dE             d eps       ncg     rms          rms(c)
DAV:   1    -0.118057054981E+04    0.29709E-02   -0.30721E-01  1600   0.916E-01    0.128E+00
RMM:   2    -0.118057122373E+04   -0.67392E-03   -0.89463E-03  1686   0.147E-01    0.104E+00
RMM:   3    -0.118057106408E+04    0.15965E-03   -0.22573E-03  1648   0.680E-02    0.422E-01
RMM:   4    -0.118057108209E+04   -0.18011E-04   -0.62001E-04  1856   0.328E-02    0.326E-01
RMM:   5    -0.118057107254E+04    0.95561E-05   -0.23914E-04  1546   0.200E-02    0.737E-02
RMM:   6    -0.118057106562E+04    0.69198E-05   -0.55265E-05  1657   0.100E-02    0.323E-02
RMM:   7    -0.118057106397E+04    0.16474E-05   -0.19686E-05  1574   0.535E-03    0.163E-02
RMM:   8    -0.118057106261E+04    0.13600E-05   -0.80657E-06  1463   0.342E-03    0.940E-03
RMM:   9    -0.118057106207E+04    0.54152E-06   -0.28845E-06  1105   0.205E-03
   2 F= -.11878999E+04 E0= -.11878975E+04  d E =0.109383E-02  mag=     0.0603
       N       E                     dE             d eps       ncg     rms          rms(c)
DAV:   1    -0.118057331358E+04   -0.22510E-02   -0.13028E-01  1760   0.595E-01    0.129E-01
RMM:   2    -0.118057354594E+04   -0.23236E-03   -0.32975E-03  1669   0.924E-02    0.115E-01
RMM:   3    -0.118057352190E+04    0.24044E-04   -0.57693E-04  1649   0.378E-02    0.100E-01
RMM:   4    -0.118057346572E+04    0.56182E-04   -0.40063E-04  1621   0.252E-02    0.491E-02
RMM:   5    -0.118057347145E+04   -0.57360E-05   -0.91299E-05  1770   0.127E-02    0.363E-02
RMM:   6    -0.118057346183E+04    0.96230E-05   -0.25314E-05  1508   0.610E-03    0.204E-02
RMM:   7    -0.118057346145E+04    0.37944E-06   -0.10051E-05  1492   0.376E-03    0.156E-02
RMM:   8    -0.118057346113E+04    0.32493E-06   -0.60077E-06  1456   0.284E-03
   3 F= -.11879014E+04 E0= -.11878990E+04  d E =-.416493E-03  mag=     0.0591
       N       E                     dE             d eps       ncg     rms          rms(c)
DAV:   1    -0.118057344676E+04    0.14694E-04   -0.13911E-01  1792   0.593E-01    0.886E-02
RMM:   2    -0.118057362845E+04   -0.18169E-03   -0.24649E-03  1663   0.774E-02    0.728E-02
RMM:   3    -0.118057362782E+04    0.62785E-06   -0.43821E-04  1628   0.323E-02    0.583E-02
RMM:   4    -0.118057360673E+04    0.21088E-04   -0.17194E-04  1598   0.184E-02    0.335E-02
RMM:   5    -0.118057361046E+04   -0.37272E-05   -0.42769E-05  1611   0.934E-03    0.213E-02
RMM:   6    -0.118057361391E+04   -0.34511E-05   -0.15611E-05  1493   0.536E-03    0.102E-02
RMM:   7    -0.118057361407E+04   -0.16409E-06   -0.34165E-06  1165   0.258E-03
   4 F= -.11879019E+04 E0= -.11878995E+04  d E =-.458142E-03  mag=     0.0601
       N       E                     dE             d eps       ncg     rms          rms(c)
DAV:   1    -0.118057363755E+04   -0.23636E-04   -0.71681E-04  1856   0.426E-02    0.894E-03
RMM:   2    -0.118057363858E+04   -0.10307E-05   -0.11573E-05  1616   0.531E-03    0.762E-03
RMM:   3    -0.118057363811E+04    0.46759E-06   -0.23502E-06  1078   0.233E-03
   5 F= -.11879019E+04 E0= -.11878995E+04  d E =-.459936E-03  mag=     0.0603
       N       E                     dE             d eps       ncg     rms          rms(c)
DAV:   1    -0.118057383598E+04   -0.19740E-03   -0.51353E-02  1632   0.351E-01    0.477E-02
RMM:   2    -0.118057388915E+04   -0.53175E-04   -0.73789E-04  1577   0.427E-02    0.408E-02
RMM:   3    -0.118057388781E+04    0.13406E-05   -0.12462E-04  1599   0.180E-02    0.342E-02
RMM:   4    -0.118057388242E+04    0.53980E-05   -0.56150E-05  1595   0.107E-02    0.209E-02
RMM:   5    -0.118057388477E+04   -0.23563E-05   -0.12239E-05  1558   0.509E-03    0.135E-02
RMM:   6    -0.118057388570E+04   -0.92853E-06   -0.28237E-06  1115   0.241E-03
   6 F= -.11879023E+04 E0= -.11878998E+04  d E =-.371248E-03  mag=     0.0616
       N       E                     dE             d eps       ncg     rms          rms(c)
DAV:   1    -0.118057383235E+04    0.52418E-04   -0.52219E-02  1664   0.354E-01    0.492E-02
RMM:   2    -0.118057388585E+04   -0.53498E-04   -0.74325E-04  1577   0.429E-02    0.423E-02
RMM:   3    -0.118057388740E+04   -0.15514E-05   -0.12717E-04  1604   0.181E-02    0.353E-02
RMM:   4    -0.118057388668E+04    0.72504E-06   -0.59564E-05  1595   0.110E-02    0.193E-02
RMM:   5    -0.118057388927E+04   -0.25893E-05   -0.11508E-05  1586   0.492E-03    0.127E-02
RMM:   6    -0.118057389018E+04   -0.90851E-06   -0.24754E-06  1081   0.227E-03
   7 F= -.11879024E+04 E0= -.11878999E+04  d E =-.501767E-03  mag=     0.0629
