       N       E                     dE             d eps       ncg     rms          rms(c)
DAV:   1     0.495812547574E+04    0.49581E+04   -0.16956E+05  1692   0.989E+02
DAV:   2     0.137620569635E+02   -0.49444E+04   -0.45438E+04  2268   0.220E+02
DAV:   3    -0.117396923904E+04   -0.11877E+04   -0.11811E+04  1872   0.120E+02
DAV:   4    -0.122519384834E+04   -0.51225E+02   -0.50861E+02  1872   0.330E+01
DAV:   5    -0.122644465613E+04   -0.12508E+01   -0.12462E+01  2016   0.483E+00    0.647E+01
RMM:   6    -0.121294184581E+04    0.13503E+02   -0.22675E+01  1440   0.508E+00    0.509E+01
RMM:   7    -0.119655556001E+04    0.16386E+02   -0.91118E+00  1440   0.383E+00    0.407E+01
RMM:   8    -0.116665224993E+04    0.29903E+02   -0.52318E+01  1440   0.894E+00    0.247E+01
RMM:   9    -0.116248622589E+04    0.41660E+01   -0.32409E+01  1440   0.701E+00    0.140E+01
RMM:  10    -0.116426996158E+04   -0.17837E+01   -0.45536E+00  1450   0.272E+00    0.106E+01
RMM:  11    -0.116241788561E+04    0.18521E+01   -0.27345E+00  1463   0.152E+00    0.614E+00
RMM:  12    -0.116196474094E+04    0.45314E+00   -0.62103E-01  1440   0.917E-01    0.395E+00
RMM:  13    -0.116182118055E+04    0.14356E+00   -0.97590E-01  1440   0.116E+00    0.138E+00
RMM:  14    -0.116179884241E+04    0.22338E-01   -0.94709E-02  1468   0.341E-01    0.470E-01
RMM:  15    -0.116179880957E+04    0.32841E-04   -0.94494E-03  1440   0.104E-01    0.430E-01
RMM:  16    -0.116179727420E+04    0.15354E-02   -0.89145E-03  1440   0.982E-02    0.254E-01
RMM:  17    -0.116179706564E+04    0.20856E-03   -0.14180E-03  1395   0.464E-02    0.186E-01
RMM:  18    -0.116179730045E+04   -0.23481E-03   -0.95715E-04  1309   0.368E-02    0.103E-01
RMM:  19    -0.116179725203E+04    0.48418E-04   -0.54421E-04  1083   0.276E-02
   1 F= -.11688522E+04 E0= -.11688522E+04  d E =-.116885E+04  mag=     0.0001
       N       E                     dE             d eps       ncg     rms          rms(c)
DAV:   1    -0.116179584186E+04    0.14586E-02   -0.16296E+00  1620   0.191E+00    0.475E-01
RMM:   2    -0.116179820661E+04   -0.23647E-02   -0.31349E-02  1440   0.262E-01    0.476E-01
RMM:   3    -0.116179817069E+04    0.35921E-04   -0.22868E-03  1412   0.551E-02    0.460E-01
RMM:   4    -0.116179719924E+04    0.97145E-03   -0.14295E-03  1420   0.473E-02    0.287E-01
RMM:   5    -0.116179718881E+04    0.10429E-04   -0.34612E-03  1440   0.702E-02    0.857E-02
RMM:   6    -0.116179707331E+04    0.11550E-03   -0.10623E-04   917   0.148E-02    0.758E-02
RMM:   7    -0.116179692764E+04    0.14567E-03   -0.37302E-04  1048   0.218E-02    0.462E-02
RMM:   8    -0.116179695596E+04   -0.28320E-04   -0.44121E-05   869   0.100E-02
   2 F= -.11688521E+04 E0= -.11688521E+04  d E =0.142772E-03  mag=    -0.0000
       N       E                     dE             d eps       ncg     rms          rms(c)
DAV:   1    -0.116179949918E+04   -0.25715E-02   -0.44020E-01  1620   0.990E-01    0.240E-01
RMM:   2    -0.116180001048E+04   -0.51130E-03   -0.73225E-03  1440   0.132E-01    0.244E-01
RMM:   3    -0.116180000390E+04    0.65801E-05   -0.43112E-04  1033   0.257E-02
   3 F= -.11688550E+04 E0= -.11688550E+04  d E =-.282637E-02  mag=    -0.0000
       N       E                     dE             d eps       ncg     rms          rms(c)
DAV:   1    -0.116179998369E+04    0.26792E-04   -0.13095E+00  1584   0.162E+00    0.218E-01
RMM:   2    -0.116180171366E+04   -0.17300E-02   -0.19781E-02  1440   0.212E-01    0.185E-01
RMM:   3    -0.116180160039E+04    0.11327E-03   -0.12042E-03  1224   0.438E-02    0.172E-01
RMM:   4    -0.116180117679E+04    0.42360E-03   -0.10492E-03  1390   0.399E-02    0.922E-02
RMM:   5    -0.116180115465E+04    0.22137E-04   -0.57049E-04  1183   0.288E-02
   4 F= -.11688557E+04 E0= -.11688557E+04  d E =-.642979E-03  mag=    -0.0000
       N       E                     dE             d eps       ncg     rms          rms(c)
DAV:   1    -0.116180138748E+04   -0.21069E-03   -0.17856E-01  1656   0.600E-01    0.109E-01
RMM:   2    -0.116180158366E+04   -0.19618E-03   -0.26049E-03  1430   0.760E-02    0.104E-01
RMM:   3    -0.116180154998E+04    0.33673E-04   -0.14139E-04   905   0.161E-02
   5 F= -.11688563E+04 E0= -.11688563E+04  d E =-.122606E-02  mag=     0.0000
       N       E                     dE             d eps       ncg     rms          rms(c)
DAV:   1    -0.116180323231E+04   -0.16487E-02   -0.82587E-01  1656   0.122E+00    0.156E-01
RMM:   2    -0.116180424431E+04   -0.10120E-02   -0.12700E-02  1440   0.167E-01    0.155E-01
RMM:   3    -0.116180419823E+04    0.46074E-04   -0.76881E-04  1138   0.349E-02
   6 F= -.11688588E+04 E0= -.11688588E+04  d E =-.250040E-02  mag=     0.0000
       N       E                     dE             d eps       ncg     rms          rms(c)
DAV:   1    -0.116180138121E+04    0.28631E-02   -0.35480E+00  1584   0.252E+00    0.484E-01
RMM:   2    -0.116180469099E+04   -0.33098E-02   -0.52034E-02  1440   0.338E-01    0.469E-01
RMM:   3    -0.116180359075E+04    0.11002E-02   -0.31712E-03  1528   0.713E-02    0.438E-01
RMM:   4    -0.116180016179E+04    0.34290E-02   -0.13098E-02  1440   0.129E-01    0.134E-01
RMM:   5    -0.116180029395E+04   -0.13216E-03   -0.15041E-03  1440   0.448E-02    0.104E-01
RMM:   6    -0.116180009561E+04    0.19834E-03   -0.43772E-04  1146   0.222E-02    0.626E-02
RMM:   7    -0.116180011660E+04   -0.20993E-04   -0.81592E-05   888   0.118E-02
   7 F= -.11688544E+04 E0= -.11688544E+04  d E =0.185626E-02  mag=     0.0000
       N       E                     dE             d eps       ncg     rms          rms(c)
DAV:   1    -0.116180302027E+04   -0.29247E-02   -0.17295E+00  1584   0.175E+00    0.240E-01
RMM:   2    -0.116180497343E+04   -0.19532E-02   -0.24933E-02  1440   0.231E-01    0.236E-01
RMM:   3    -0.116180486982E+04    0.10361E-03   -0.16160E-03  1290   0.486E-02    0.236E-01
RMM:   4    -0.116180444144E+04    0.42838E-03   -0.21301E-04   954   0.212E-02    0.198E-01
RMM:   5    -0.116180399263E+04    0.44881E-03   -0.51234E-03  1440   0.790E-02    0.784E-02
RMM:   6    -0.116180384611E+04    0.14653E-03   -0.13916E-04   926   0.159E-02    0.544E-02
RMM:   7    -0.116180382221E+04    0.23900E-04   -0.88835E-05   876   0.110E-02
   8 F= -.11688583E+04 E0= -.11688583E+04  d E =-.203732E-02  mag=    -0.0000
       N       E                     dE             d eps       ncg     rms          rms(c)
DAV:   1    -0.116180471924E+04   -0.87313E-03   -0.30103E-01  1584   0.700E-01    0.952E-02
RMM:   2    -0.116180504025E+04   -0.32101E-03   -0.43542E-03  1440   0.941E-02    0.966E-02
RMM:   3    -0.116180502594E+04    0.14305E-04   -0.27547E-04   966   0.205E-02
   9 F= -.11688595E+04 E0= -.11688595E+04  d E =-.123468E-02  mag=    -0.0000
       N       E                     dE             d eps       ncg     rms          rms(c)
DAV:   1    -0.116180504362E+04   -0.33683E-05   -0.27229E+00  1440   0.211E+00    0.381E-01
RMM:   2    -0.116180772037E+04   -0.26768E-02   -0.39537E-02  1440   0.285E-01    0.379E-01
RMM:   3    -0.116180735173E+04    0.36864E-03   -0.26436E-03  1390   0.618E-02    0.375E-01
RMM:   4    -0.116180557257E+04    0.17792E-02   -0.15374E-03  1400   0.446E-02    0.261E-01
RMM:   5    -0.116180513662E+04    0.43595E-03   -0.96131E-03  1440   0.105E-01    0.112E-01
RMM:   6    -0.116180479461E+04    0.34201E-03   -0.41343E-04  1040   0.243E-02    0.675E-02
RMM:   7    -0.116180473156E+04    0.63047E-04   -0.23420E-04   918   0.166E-02
  10 F= -.11688594E+04 E0= -.11688594E+04  d E =-.105300E-02  mag=    -0.0000
       N       E                     dE             d eps       ncg     rms          rms(c)
DAV:   1    -0.116180510312E+04   -0.30851E-03   -0.56092E-01  1440   0.954E-01    0.128E-01
RMM:   2    -0.116180571868E+04   -0.61556E-03   -0.80930E-03  1440   0.127E-01    0.127E-01
RMM:   3    -0.116180568813E+04    0.30550E-04   -0.53271E-04  1070   0.279E-02
  11 F= -.11688603E+04 E0= -.11688603E+04  d E =-.195447E-02  mag=     0.0000
       N       E                     dE             d eps       ncg     rms          rms(c)
DAV:   1    -0.116180774365E+04   -0.20250E-02   -0.54795E-02  1584   0.410E-01    0.163E-01
RMM:   2    -0.116180757018E+04    0.17347E-03   -0.11499E-03  1426   0.577E-02    0.144E-01
RMM:   3    -0.116180697453E+04    0.59565E-03   -0.90741E-04  1422   0.359E-02    0.740E-02
RMM:   4    -0.116180689188E+04    0.82648E-04   -0.66869E-04  1380   0.307E-02
  12 F= -.11688614E+04 E0= -.11688614E+04  d E =-.116866E-02  mag=     0.0000
       N       E                     dE             d eps       ncg     rms          rms(c)
DAV:   1    -0.116180740885E+04   -0.43432E-03   -0.27394E-02  1584   0.292E-01    0.649E-02
RMM:   2    -0.116180744594E+04   -0.37088E-04   -0.77856E-04  1352   0.478E-02
  13 F= -.11688620E+04 E0= -.11688620E+04  d E =-.169976E-02  mag=     0.0000
       N       E                     dE             d eps       ncg     rms          rms(c)
DAV:   1    -0.116180831586E+04   -0.90701E-03   -0.34660E-02  1440   0.320E-01    0.990E-02
RMM:   2    -0.116180825727E+04    0.58590E-04   -0.64453E-04  1242   0.419E-02
  14 F= -.11688628E+04 E0= -.11688628E+04  d E =-.804796E-03  mag=     0.0000
       N       E                     dE             d eps       ncg     rms          rms(c)
DAV:   1    -0.116180887085E+04   -0.55499E-03   -0.29426E-01  1440   0.932E-01    0.241E-01
RMM:   2    -0.116180881857E+04    0.52278E-04   -0.56815E-03  1440   0.122E-01    0.224E-01
RMM:   3    -0.116180809354E+04    0.72504E-03   -0.59896E-04  1280   0.345E-02    0.175E-01
RMM:   4    -0.116180737240E+04    0.72113E-03   -0.34098E-03  1440   0.706E-02    0.458E-02
RMM:   5    -0.116180735104E+04    0.21362E-04   -0.60154E-05   892   0.127E-02
  15 F= -.11688618E+04 E0= -.11688618E+04  d E =0.115348E-03  mag=    -0.0000
       N       E                     dE             d eps       ncg     rms          rms(c)
DAV:   1    -0.116180834137E+04   -0.96896E-03   -0.84949E-02  1584   0.502E-01    0.936E-02
RMM:   2    -0.116180837331E+04   -0.31945E-04   -0.14896E-03  1438   0.621E-02    0.866E-02
RMM:   3    -0.116180828341E+04    0.89907E-04   -0.93268E-05   856   0.151E-02
  16 F= -.11688628E+04 E0= -.11688628E+04  d E =-.823584E-03  mag=     0.0000
