       N       E                     dE             d eps       ncg     rms          rms(c)
DAV:   1     0.483329500970E+04    0.48333E+04   -0.17689E+05  1872   0.925E+02
DAV:   2    -0.750664785765E+02   -0.49084E+04   -0.45086E+04  2520   0.211E+02
DAV:   3    -0.119692871000E+04   -0.11219E+04   -0.11169E+04  2196   0.109E+02
DAV:   4    -0.124249466574E+04   -0.45566E+02   -0.45301E+02  2016   0.281E+01
DAV:   5    -0.124384744856E+04   -0.13528E+01   -0.13494E+01  2448   0.419E+00    0.695E+01
RMM:   6    -0.123147497208E+04    0.12372E+02   -0.73501E+00  1585   0.309E+00    0.587E+01
RMM:   7    -0.118903856535E+04    0.42436E+02   -0.67463E+01  1586   0.930E+00    0.382E+01
RMM:   8    -0.117978081095E+04    0.92578E+01   -0.24152E+01  1599   0.556E+00    0.270E+01
RMM:   9    -0.118151244202E+04   -0.17316E+01   -0.27715E+01  1589   0.593E+00    0.112E+01
RMM:  10    -0.117988174692E+04    0.16307E+01   -0.13503E+00  1597   0.142E+00    0.646E+00
RMM:  11    -0.117935129692E+04    0.53045E+00   -0.28362E+00  1588   0.177E+00    0.315E+00
RMM:  12    -0.117927152282E+04    0.79774E-01   -0.18399E-01  1594   0.444E-01    0.129E+00
RMM:  13    -0.117926237831E+04    0.91445E-02   -0.12040E-01  1592   0.382E-01    0.704E-01
RMM:  14    -0.117925258276E+04    0.97956E-02   -0.36027E-02  1613   0.199E-01    0.274E-01
RMM:  15    -0.117925252670E+04    0.56060E-04   -0.66667E-03  1721   0.767E-02    0.298E-01
RMM:  16    -0.117925173583E+04    0.79088E-03   -0.20558E-03  1636   0.506E-02    0.140E-01
RMM:  17    -0.117925194373E+04   -0.20790E-03   -0.34551E-04  1231   0.201E-02    0.978E-02
RMM:  18    -0.117925183442E+04    0.10931E-03   -0.10039E-03  1621   0.362E-02    0.340E-02
RMM:  19    -0.117925186388E+04   -0.29458E-04   -0.48592E-05  1026   0.896E-03
   1 F= -.11864147E+04 E0= -.11864147E+04  d E =-.118641E+04  mag=     1.0004
       N       E                     dE             d eps       ncg     rms          rms(c)
DAV:   1    -0.117925041392E+04    0.14205E-02   -0.95293E-01  1620   0.133E+00    0.555E-01
RMM:   2    -0.117925242509E+04   -0.20112E-02   -0.28818E-02  1605   0.198E-01    0.571E-01
RMM:   3    -0.117925210816E+04    0.31693E-03   -0.12678E-03  1535   0.408E-02    0.573E-01
RMM:   4    -0.117925192101E+04    0.18714E-03   -0.14881E-04  1098   0.160E-02    0.528E-01
RMM:   5    -0.117925346276E+04   -0.15417E-02   -0.12520E-02  1587   0.112E-01    0.282E-01
RMM:   6    -0.117925271853E+04    0.74422E-03   -0.33348E-04  1150   0.235E-02    0.221E-01
RMM:   7    -0.117925206923E+04    0.64930E-03   -0.22869E-03  1538   0.447E-02    0.568E-02
RMM:   8    -0.117925212421E+04   -0.54980E-04   -0.63181E-05  1008   0.104E-02
   2 F= -.11864154E+04 E0= -.11864154E+04  d E =-.770337E-03  mag=     1.0000
       N       E                     dE             d eps       ncg     rms          rms(c)
DAV:   1    -0.117925305809E+04   -0.98885E-03   -0.19197E-01  1692   0.596E-01    0.259E-01
RMM:   2    -0.117925326987E+04   -0.21178E-03   -0.47917E-03  1584   0.802E-02    0.261E-01
RMM:   3    -0.117925317565E+04    0.94222E-04   -0.14542E-04  1077   0.152E-02
   3 F= -.11864163E+04 E0= -.11864163E+04  d E =-.158712E-02  mag=     1.0000
       N       E                     dE             d eps       ncg     rms          rms(c)
DAV:   1    -0.117925344430E+04   -0.17443E-03   -0.53839E-01  1584   0.833E-01    0.404E-01
RMM:   2    -0.117925420750E+04   -0.76320E-03   -0.12576E-02  1588   0.113E-01    0.425E-01
RMM:   3    -0.117925397155E+04    0.23595E-03   -0.39112E-04  1179   0.213E-02    0.437E-01
RMM:   4    -0.117925404881E+04   -0.77260E-04   -0.32563E-04  1115   0.195E-02
   4 F= -.11864176E+04 E0= -.11864176E+04  d E =-.129956E-02  mag=     1.0000
       N       E                     dE             d eps       ncg     rms          rms(c)
DAV:   1    -0.117925402833E+04   -0.56782E-04   -0.56817E-02  1728   0.272E-01    0.225E-01
RMM:   2    -0.117925400990E+04    0.18426E-04   -0.12577E-03  1151   0.341E-02    0.220E-01
RMM:   3    -0.117925397156E+04    0.38345E-04   -0.64230E-05  1024   0.105E-02
   5 F= -.11864176E+04 E0= -.11864176E+04  d E =-.136611E-02  mag=     1.0000
       N       E                     dE             d eps       ncg     rms          rms(c)
DAV:   1    -0.117925413944E+04   -0.12953E-03   -0.44038E-01  1728   0.806E-01    0.314E-01
RMM:   2    -0.117925456889E+04   -0.42945E-03   -0.95010E-03  1584   0.102E-01    0.288E-01
RMM:   3    -0.117925443870E+04    0.13018E-03   -0.30398E-04  1138   0.201E-02    0.247E-01
RMM:   4    -0.117925479570E+04   -0.35699E-03   -0.93279E-04  1523   0.334E-02    0.540E-02
RMM:   5    -0.117925479840E+04   -0.27009E-05   -0.26943E-05  1003   0.792E-03
   6 F= -.11864189E+04 E0= -.11864189E+04  d E =-.122742E-02  mag=     1.0000
       N       E                     dE             d eps       ncg     rms          rms(c)
DAV:   1    -0.117925476286E+04    0.32836E-04   -0.74900E-03  1872   0.106E-01    0.464E-02
RMM:   2    -0.117925475709E+04    0.57670E-05   -0.19606E-04  1032   0.176E-02
   7 F= -.11864189E+04 E0= -.11864189E+04  d E =-.123640E-02  mag=     1.0000
       N       E                     dE             d eps       ncg     rms          rms(c)
DAV:   1    -0.117925567281E+04   -0.90995E-03   -0.12011E-01  1728   0.487E-01    0.162E-01
RMM:   2    -0.117925581750E+04   -0.14470E-03   -0.32166E-03  1582   0.656E-02    0.149E-01
RMM:   3    -0.117925575623E+04    0.61267E-04   -0.11347E-04  1048   0.139E-02
   8 F= -.11864199E+04 E0= -.11864199E+04  d E =-.100925E-02  mag=     1.0000
       N       E                     dE             d eps       ncg     rms          rms(c)
DAV:   1    -0.117925542398E+04    0.39352E-03   -0.32302E-01  1656   0.799E-01    0.294E-01
RMM:   2    -0.117925593083E+04   -0.50686E-03   -0.83211E-03  1588   0.101E-01    0.275E-01
RMM:   3    -0.117925580596E+04    0.12487E-03   -0.30685E-04  1174   0.210E-02    0.240E-01
RMM:   4    -0.117925601561E+04   -0.20964E-03   -0.12187E-03  1578   0.399E-02    0.422E-02
RMM:   5    -0.117925596390E+04    0.51710E-04   -0.24354E-05  1004   0.755E-03
   9 F= -.11864201E+04 E0= -.11864201E+04  d E =-.123651E-02  mag=     1.0000
       N       E                     dE             d eps       ncg     rms          rms(c)
DAV:   1    -0.117925680962E+04   -0.79401E-03   -0.13399E-01  1728   0.596E-01    0.121E-01
RMM:   2    -0.117925702561E+04   -0.21599E-03   -0.35974E-03  1589   0.898E-02    0.116E-01
RMM:   3    -0.117925694332E+04    0.82291E-04   -0.13608E-04  1069   0.173E-02
  10 F= -.11864210E+04 E0= -.11864210E+04  d E =-.889550E-03  mag=     1.0000
       N       E                     dE             d eps       ncg     rms          rms(c)
DAV:   1    -0.117925695899E+04    0.66620E-04   -0.87007E-03  1728   0.150E-01    0.425E-02
RMM:   2    -0.117925697938E+04   -0.20387E-04   -0.50946E-04  1294   0.349E-02
  11 F= -.11864210E+04 E0= -.11864210E+04  d E =-.942135E-03  mag=     1.0000
