       N       E                     dE             d eps       ncg     rms          rms(c)
DAV:   1     0.501242965568E+04    0.50124E+04   -0.17317E+05  1836   0.923E+02
DAV:   2    -0.352977154278E+02   -0.50477E+04   -0.46188E+04  2592   0.211E+02
DAV:   3    -0.119834632172E+04   -0.11630E+04   -0.11576E+04  2088   0.111E+02
DAV:   4    -0.124504694946E+04   -0.46701E+02   -0.46455E+02  2016   0.296E+01
DAV:   5    -0.124621521203E+04   -0.11683E+01   -0.11660E+01  2340   0.428E+00    0.670E+01
RMM:   6    -0.122865507001E+04    0.17560E+02   -0.29317E+01  1584   0.514E+00    0.546E+01
RMM:   7    -0.121321378627E+04    0.15441E+02   -0.81727E+00  1584   0.328E+00    0.426E+01
RMM:   8    -0.118750635767E+04    0.25707E+02   -0.31823E+01  1584   0.650E+00    0.272E+01
RMM:   9    -0.117740052254E+04    0.10106E+02   -0.18630E+01  1584   0.498E+00    0.192E+01
RMM:  10    -0.117827136885E+04   -0.87085E+00   -0.19035E+01  1584   0.492E+00    0.838E+00
RMM:  11    -0.117775623859E+04    0.51513E+00   -0.10425E+00  1620   0.119E+00    0.540E+00
RMM:  12    -0.117735906495E+04    0.39717E+00   -0.80591E-01  1584   0.988E-01    0.310E+00
RMM:  13    -0.117711817816E+04    0.24089E+00   -0.39515E-01  1584   0.653E-01    0.812E-01
RMM:  14    -0.117711319646E+04    0.49817E-02   -0.38973E-02  1606   0.223E-01    0.437E-01
RMM:  15    -0.117711243016E+04    0.76630E-03   -0.88734E-03  1622   0.108E-01    0.285E-01
RMM:  16    -0.117711208843E+04    0.34172E-03   -0.31302E-03  1594   0.662E-02    0.154E-01
RMM:  17    -0.117711217727E+04   -0.88840E-04   -0.76180E-04  1340   0.325E-02
   1 F= -.11845112E+04 E0= -.11845112E+04  d E =-.118451E+04  mag=     0.0126
       N       E                     dE             d eps       ncg     rms          rms(c)
DAV:   1    -0.117711166715E+04    0.42129E-03   -0.50876E-01  1656   0.103E+00    0.297E-01
RMM:   2    -0.117711242019E+04   -0.75305E-03   -0.11235E-02  1584   0.141E-01    0.271E-01
RMM:   3    -0.117711221802E+04    0.20218E-03   -0.67307E-04  1322   0.311E-02    0.235E-01
RMM:   4    -0.117711197498E+04    0.24303E-03   -0.17853E-03  1584   0.473E-02    0.762E-02
RMM:   5    -0.117711199659E+04   -0.21610E-04   -0.12993E-04  1045   0.152E-02
   2 F= -.11845115E+04 E0= -.11845115E+04  d E =-.344465E-03  mag=     0.0010
       N       E                     dE             d eps       ncg     rms          rms(c)
DAV:   1    -0.117711309548E+04   -0.11205E-02   -0.12593E-01  1656   0.510E-01    0.150E-01
RMM:   2    -0.117711319071E+04   -0.95233E-04   -0.23453E-03  1561   0.651E-02    0.132E-01
RMM:   3    -0.117711308147E+04    0.10924E-03   -0.15085E-04  1062   0.159E-02    0.108E-01
RMM:   4    -0.117711300619E+04    0.75275E-04   -0.65977E-04  1530   0.286E-02
   3 F= -.11845123E+04 E0= -.11845123E+04  d E =-.109130E-02  mag=    -0.0002
