       N       E                     dE             d eps       ncg     rms          rms(c)
DAV:   1     0.505378411463E+04    0.50538E+04   -0.17291E+05  1800   0.923E+02
DAV:   2    -0.359812284564E+02   -0.50898E+04   -0.46661E+04  2592   0.212E+02
DAV:   3    -0.119326241152E+04   -0.11573E+04   -0.11511E+04  2016   0.112E+02
DAV:   4    -0.124154357315E+04   -0.48281E+02   -0.48002E+02  2052   0.305E+01
DAV:   5    -0.124279247865E+04   -0.12489E+01   -0.12462E+01  2412   0.448E+00    0.657E+01
RMM:   6    -0.122694164685E+04    0.15851E+02   -0.24114E+01  1584   0.508E+00    0.527E+01
RMM:   7    -0.121191285900E+04    0.15029E+02   -0.77841E+00  1584   0.325E+00    0.418E+01
RMM:   8    -0.118571708464E+04    0.26196E+02   -0.32157E+01  1584   0.657E+00    0.267E+01
RMM:   9    -0.117598535023E+04    0.97317E+01   -0.17678E+01  1584   0.485E+00    0.191E+01
RMM:  10    -0.117650735262E+04   -0.52200E+00   -0.18009E+01  1584   0.481E+00    0.856E+00
RMM:  11    -0.117628660096E+04    0.22075E+00   -0.94415E-01  1622   0.122E+00    0.585E+00
RMM:  12    -0.117568260279E+04    0.60400E+00   -0.13625E+00  1584   0.128E+00    0.270E+00
RMM:  13    -0.117560404247E+04    0.78560E-01   -0.10805E-01  1592   0.396E-01    0.102E+00
RMM:  14    -0.117557885882E+04    0.25184E-01   -0.79539E-02  1584   0.298E-01    0.418E-01
RMM:  15    -0.117558057804E+04   -0.17192E-02   -0.20922E-02  1585   0.169E-01    0.322E-01
RMM:  16    -0.117557868247E+04    0.18956E-02   -0.27372E-03  1597   0.645E-02    0.177E-01
RMM:  17    -0.117557849584E+04    0.18663E-03   -0.19548E-03  1565   0.453E-02    0.130E-01
RMM:  18    -0.117557848240E+04    0.13440E-04   -0.50844E-04  1246   0.268E-02
   1 F= -.11828147E+04 E0= -.11828147E+04  d E =-.118281E+04  mag=     0.0003
       N       E                     dE             d eps       ncg     rms          rms(c)
DAV:   1    -0.117557817724E+04    0.31861E-03   -0.86519E-01  1656   0.132E+00    0.340E-01
RMM:   2    -0.117557906591E+04   -0.88867E-03   -0.19949E-02  1584   0.183E-01    0.308E-01
RMM:   3    -0.117557857190E+04    0.49401E-03   -0.11747E-03  1498   0.398E-02    0.275E-01
RMM:   4    -0.117557777630E+04    0.79560E-03   -0.21877E-03  1584   0.527E-02    0.128E-01
RMM:   5    -0.117557783967E+04   -0.63366E-04   -0.88501E-04  1584   0.338E-02
   2 F= -.11828145E+04 E0= -.11828145E+04  d E =0.113666E-03  mag=    -0.0000
       N       E                     dE             d eps       ncg     rms          rms(c)
DAV:   1    -0.117557998536E+04   -0.22091E-02   -0.22877E-01  1728   0.680E-01    0.171E-01
RMM:   2    -0.117558011074E+04   -0.12538E-03   -0.45761E-03  1584   0.911E-02    0.155E-01
RMM:   3    -0.117557989853E+04    0.21221E-03   -0.24774E-04  1108   0.200E-02    0.134E-01
RMM:   4    -0.117557961028E+04    0.28825E-03   -0.10253E-03  1583   0.356E-02    0.566E-02
RMM:   5    -0.117557961716E+04   -0.68792E-05   -0.14677E-04  1042   0.153E-02
   3 F= -.11828161E+04 E0= -.11828161E+04  d E =-.138996E-02  mag=    -0.0000
       N       E                     dE             d eps       ncg     rms          rms(c)
DAV:   1    -0.117557969844E+04   -0.88164E-04   -0.48627E-01  1584   0.988E-01    0.241E-01
RMM:   2    -0.117558018832E+04   -0.48988E-03   -0.96718E-03  1584   0.129E-01    0.200E-01
RMM:   3    -0.117557987686E+04    0.31147E-03   -0.42875E-04  1204   0.271E-02    0.159E-01
RMM:   4    -0.117557969857E+04    0.17828E-03   -0.12104E-03  1576   0.389E-02    0.704E-02
RMM:   5    -0.117557970253E+04   -0.39525E-05   -0.11850E-04  1038   0.141E-02
   4 F= -.11828164E+04 E0= -.11828164E+04  d E =-.324639E-03  mag=    -0.0000
       N       E                     dE             d eps       ncg     rms          rms(c)
DAV:   1    -0.117558026330E+04   -0.56473E-03   -0.90800E-02  1728   0.428E-01    0.104E-01
RMM:   2    -0.117558031990E+04   -0.56597E-04   -0.17464E-03  1524   0.548E-02    0.871E-02
RMM:   3    -0.117558022784E+04    0.92061E-04   -0.90916E-05  1000   0.131E-02
   5 F= -.11828168E+04 E0= -.11828168E+04  d E =-.746685E-03  mag=     0.0000
