       N       E                     dE             d eps       ncg     rms          rms(c)
DAV:   1     0.505283482156E+04    0.50528E+04   -0.18081E+05  1872   0.940E+02
DAV:   2    -0.234706153377E+02   -0.50763E+04   -0.46740E+04  2592   0.216E+02
DAV:   3    -0.120200041736E+04   -0.11785E+04   -0.11714E+04  2016   0.113E+02
DAV:   4    -0.125256354571E+04   -0.50563E+02   -0.50248E+02  2016   0.312E+01
DAV:   5    -0.125386826893E+04   -0.13047E+01   -0.13011E+01  2376   0.476E+00    0.100E+02
RMM:   6    -0.125537723243E+04   -0.15090E+01   -0.21309E+02  1926   0.193E+01    0.999E+01
RMM:   7    -0.123261729657E+04    0.22760E+02   -0.10605E+01  1596   0.511E+00    0.738E+01
RMM:   8    -0.120020239236E+04    0.32415E+02   -0.33834E+01  1595   0.786E+00    0.356E+01
RMM:   9    -0.119008299410E+04    0.10119E+02   -0.90137E+00  1584   0.411E+00    0.296E+01
RMM:  10    -0.117775403459E+04    0.12329E+02   -0.19326E+01  1584   0.550E+00    0.220E+01
RMM:  11    -0.117378794763E+04    0.39661E+01   -0.15108E+01  1594   0.466E+00    0.135E+01
RMM:  12    -0.117541933501E+04   -0.16314E+01   -0.57334E+00  1597   0.365E+00    0.967E+00
RMM:  13    -0.117466400846E+04    0.75533E+00   -0.11081E+00  1670   0.162E+00    0.516E+00
RMM:  14    -0.117434983293E+04    0.31418E+00   -0.40082E-01  1600   0.747E-01    0.384E+00
RMM:  15    -0.117420410432E+04    0.14573E+00   -0.65058E-01  1586   0.960E-01    0.888E-01
RMM:  16    -0.117419846734E+04    0.56370E-02   -0.46872E-02  1600   0.352E-01    0.572E-01
RMM:  17    -0.117419671449E+04    0.17528E-02   -0.59830E-03  1649   0.102E-01    0.347E-01
RMM:  18    -0.117419622418E+04    0.49031E-03   -0.30159E-03  1608   0.713E-02    0.192E-01
RMM:  19    -0.117419626681E+04   -0.42627E-04   -0.14030E-03  1335   0.569E-02    0.127E-01
RMM:  20    -0.117419641562E+04   -0.14882E-03   -0.42609E-04  1279   0.255E-02    0.792E-02
RMM:  21    -0.117419634673E+04    0.68890E-04   -0.78187E-05  1012   0.140E-02
   1 F= -.11813513E+04 E0= -.11813513E+04  d E =-.118135E+04  mag=     0.0022
       N       E                     dE             d eps       ncg     rms          rms(c)
DAV:   1    -0.117419475365E+04    0.16620E-02   -0.39408E-01  1764   0.115E+00    0.185E-01
RMM:   2    -0.117419600305E+04   -0.12494E-02   -0.16051E-02  1739   0.198E-01    0.166E-01
RMM:   3    -0.117419575682E+04    0.24622E-03   -0.86478E-04  1495   0.491E-02    0.157E-01
RMM:   4    -0.117419535943E+04    0.39739E-03   -0.62495E-04  1541   0.318E-02    0.974E-02
RMM:   5    -0.117419527178E+04    0.87647E-04   -0.77477E-04  1548   0.347E-02
   2 F= -.11813504E+04 E0= -.11813504E+04  d E =0.859793E-03  mag=     0.0003
       N       E                     dE             d eps       ncg     rms          rms(c)
DAV:   1    -0.117419682956E+04   -0.14701E-02   -0.14925E-01  1656   0.706E-01    0.110E-01
RMM:   2    -0.117419720086E+04   -0.37130E-03   -0.52113E-03  1722   0.119E-01    0.966E-02
RMM:   3    -0.117419708838E+04    0.11248E-03   -0.21829E-04  1117   0.273E-02    0.907E-02
RMM:   4    -0.117419693736E+04    0.15102E-03   -0.18096E-04  1017   0.209E-02    0.599E-02
RMM:   5    -0.117419687913E+04    0.58229E-04   -0.42879E-04  1402   0.251E-02
   3 F= -.11813519E+04 E0= -.11813519E+04  d E =-.614768E-03  mag=    -0.0000
