       N       E                     dE             d eps       ncg     rms          rms(c)
DAV:   1     0.486375338400E+04    0.48638E+04   -0.17895E+05  1856   0.956E+02
DAV:   2    -0.504211396090E+02   -0.49142E+04   -0.44985E+04  2464   0.218E+02
DAV:   3    -0.119814358821E+04   -0.11477E+04   -0.11412E+04  2016   0.114E+02
DAV:   4    -0.124749986444E+04   -0.49356E+02   -0.49028E+02  1920   0.326E+01
DAV:   5    -0.124890695910E+04   -0.14071E+01   -0.14017E+01  2240   0.502E+00    0.719E+01
RMM:   6    -0.123283463417E+04    0.16072E+02   -0.10669E+01  1577   0.422E+00    0.530E+01
RMM:   7    -0.120609520248E+04    0.26739E+02   -0.42956E+01  1575   0.797E+00    0.345E+01
RMM:   8    -0.119182835279E+04    0.14267E+02   -0.20811E+01  1568   0.661E+00    0.306E+01
RMM:   9    -0.118223022127E+04    0.95981E+01   -0.18823E+01  1584   0.626E+00    0.198E+01
RMM:  10    -0.118500641214E+04   -0.27762E+01   -0.18751E+01  1625   0.614E+00    0.193E+01
RMM:  11    -0.118322929916E+04    0.17771E+01   -0.37682E+00  1703   0.346E+00    0.942E+00
RMM:  12    -0.118340346072E+04   -0.17416E+00   -0.25815E+00  1620   0.182E+00    0.108E+01
RMM:  13    -0.118290099973E+04    0.50246E+00   -0.84639E-01  1551   0.127E+00    0.982E+00
RMM:  14    -0.118233576310E+04    0.56524E+00   -0.53935E-01  1568   0.105E+00    0.567E+00
RMM:  15    -0.118235839881E+04   -0.22636E-01   -0.14806E-01  1672   0.581E-01    0.396E+00
RMM:  16    -0.118234962473E+04    0.87741E-02   -0.36700E-02  1589   0.276E-01    0.308E+00
RMM:  17    -0.118235952789E+04   -0.99032E-02   -0.17479E-02  1659   0.189E-01    0.291E+00
RMM:  18    -0.118232247789E+04    0.37050E-01   -0.24657E-02  1754   0.182E-01    0.127E+00
RMM:  19    -0.118232715406E+04   -0.46762E-02   -0.12347E-02  1608   0.138E-01    0.143E+00
RMM:  20    -0.118233171056E+04   -0.45565E-02   -0.29773E-03  1575   0.119E-01    0.181E+00
RMM:  21    -0.118232641876E+04    0.52918E-02   -0.35759E-03  1624   0.907E-02    0.431E-01
RMM:  22    -0.118232898728E+04   -0.25685E-02   -0.55507E-04  1559   0.560E-02    0.152E-01
RMM:  23    -0.118232913168E+04   -0.14440E-03   -0.46147E-04  1561   0.304E-02    0.576E-02
RMM:  24    -0.118232923577E+04   -0.10409E-03   -0.11069E-04  1665   0.161E-02    0.117E-01
RMM:  25    -0.118232923084E+04    0.49334E-05   -0.37602E-05  1576   0.954E-03    0.128E-01
RMM:  26    -0.118232923124E+04   -0.40412E-06   -0.20483E-05  1547   0.104E-02    0.685E-02
RMM:  27    -0.118232923089E+04    0.35316E-06   -0.10390E-05  1469   0.467E-03    0.356E-02
RMM:  28    -0.118232925097E+04   -0.20087E-04   -0.52981E-06  1216   0.387E-03    0.210E-02
RMM:  29    -0.118232925711E+04   -0.61326E-05   -0.17690E-06  1076   0.328E-03    0.204E-02
RMM:  30    -0.118232925650E+04    0.61029E-06   -0.50648E-07  1011   0.150E-03
   1 F= -.11894826E+04 E0= -.11894725E+04  d E =-.118948E+04  mag=     1.5926
       N       E                     dE             d eps       ncg     rms          rms(c)
DAV:   1    -0.118232824098E+04    0.10161E-02   -0.44067E-01  1632   0.114E+00    0.174E-01
RMM:   2    -0.118232925391E+04   -0.10129E-02   -0.12168E-02  1581   0.179E-01    0.341E-01
RMM:   3    -0.118232929199E+04   -0.38085E-04   -0.24873E-03  1856   0.768E-02    0.212E-01
RMM:   4    -0.118232933692E+04   -0.44924E-04   -0.39949E-04  1849   0.294E-02    0.240E-01
RMM:   5    -0.118232923193E+04    0.10499E-03   -0.56646E-04  1551   0.289E-02    0.103E-01
RMM:   6    -0.118232934577E+04   -0.11383E-03   -0.43711E-04  1564   0.264E-02    0.906E-02
RMM:   7    -0.118232931407E+04    0.31696E-04   -0.73138E-05  1547   0.134E-02    0.630E-02
RMM:   8    -0.118232935527E+04   -0.41202E-04   -0.65535E-05  1567   0.107E-02    0.495E-02
RMM:   9    -0.118232935546E+04   -0.18843E-06   -0.12123E-05  1567   0.612E-03    0.360E-02
RMM:  10    -0.118232935442E+04    0.10378E-05   -0.11940E-05  1500   0.471E-03    0.155E-02
RMM:  11    -0.118232935787E+04   -0.34422E-05   -0.81313E-06  1387   0.365E-03    0.113E-02
RMM:  12    -0.118232935830E+04   -0.43340E-06   -0.12748E-06  1026   0.231E-03
   2 F= -.11894837E+04 E0= -.11894736E+04  d E =-.110855E-02  mag=     1.5880
       N       E                     dE             d eps       ncg     rms          rms(c)
DAV:   1    -0.118232964580E+04   -0.28794E-03   -0.22327E-02  1792   0.256E-01    0.418E-02
RMM:   2    -0.118232967125E+04   -0.25447E-04   -0.49023E-04  1543   0.387E-02    0.854E-02
RMM:   3    -0.118232965471E+04    0.16544E-04   -0.92256E-05  1781   0.166E-02    0.455E-02
RMM:   4    -0.118232966346E+04   -0.87520E-05   -0.16796E-05  1520   0.646E-03    0.499E-02
RMM:   5    -0.118232967393E+04   -0.10473E-04   -0.37094E-05  1541   0.787E-03    0.195E-02
RMM:   6    -0.118232968211E+04   -0.81730E-05   -0.12557E-05  1598   0.524E-03    0.182E-02
RMM:   7    -0.118232968251E+04   -0.39883E-06   -0.38805E-06  1243   0.300E-03
   3 F= -.11894838E+04 E0= -.11894737E+04  d E =-.120576E-02  mag=     1.5888
       N       E                     dE             d eps       ncg     rms          rms(c)
DAV:   1    -0.118232958816E+04    0.93943E-04   -0.22595E-01  1888   0.800E-01    0.135E-01
RMM:   2    -0.118232994250E+04   -0.35433E-03   -0.48174E-03  1544   0.117E-01    0.276E-01
RMM:   3    -0.118232986894E+04    0.73562E-04   -0.88118E-04  1789   0.500E-02    0.123E-01
RMM:   4    -0.118232994233E+04   -0.73393E-04   -0.16797E-04  1786   0.200E-02    0.141E-01
RMM:   5    -0.118232996709E+04   -0.24757E-04   -0.18962E-04  1552   0.190E-02    0.535E-02
RMM:   6    -0.118233002610E+04   -0.59011E-04   -0.10103E-04  1573   0.142E-02    0.492E-02
RMM:   7    -0.118233003249E+04   -0.63920E-05   -0.12124E-05  1549   0.621E-03    0.367E-02
RMM:   8    -0.118233004619E+04   -0.13699E-04   -0.11092E-05  1526   0.467E-03    0.210E-02
RMM:   9    -0.118233004711E+04   -0.92630E-06   -0.28034E-06  1087   0.278E-03
   4 F= -.11894846E+04 E0= -.11894746E+04  d E =-.851607E-03  mag=     1.5880
