       N       E                     dE             d eps       ncg     rms          rms(c)
DAV:   1     0.519605738869E+04    0.51961E+04   -0.17075E+05  1728   0.949E+02
DAV:   2     0.185181166605E+02   -0.51775E+04   -0.47457E+04  2496   0.221E+02
DAV:   3    -0.120053353583E+04   -0.12191E+04   -0.12098E+04  1984   0.118E+02
DAV:   4    -0.125430555707E+04   -0.53772E+02   -0.53452E+02  1888   0.335E+01
DAV:   5    -0.125592338733E+04   -0.16178E+01   -0.16137E+01  2304   0.577E+00    0.757E+01
RMM:   6    -0.124825518386E+04    0.76682E+01   -0.89437E+01  1675   0.147E+01    0.759E+01
RMM:   7    -0.122509965575E+04    0.23156E+02   -0.13789E+01  1544   0.630E+00    0.506E+01
RMM:   8    -0.121063086040E+04    0.14469E+02   -0.12342E+01  1564   0.469E+00    0.408E+01
RMM:   9    -0.118483776888E+04    0.25793E+02   -0.39369E+01  1716   0.782E+00    0.245E+01
RMM:  10    -0.117809324834E+04    0.67445E+01   -0.13574E+01  1544   0.517E+00    0.176E+01
RMM:  11    -0.117862256184E+04   -0.52931E+00   -0.14667E+01  1636   0.534E+00    0.926E+00
RMM:  12    -0.117843267495E+04    0.18989E+00   -0.15995E+00  1729   0.235E+00    0.782E+00
RMM:  13    -0.117802123057E+04    0.41144E+00   -0.54048E-01  1567   0.118E+00    0.557E+00
RMM:  14    -0.117787638344E+04    0.14485E+00   -0.68475E-01  1543   0.102E+00    0.266E+00
RMM:  15    -0.117770390629E+04    0.17248E+00   -0.28698E-01  1550   0.755E-01    0.107E+00
RMM:  16    -0.117770777933E+04   -0.38730E-02   -0.81437E-02  1796   0.426E-01    0.768E-01
RMM:  17    -0.117770861820E+04   -0.83887E-03   -0.81249E-03  1675   0.125E-01    0.734E-01
RMM:  18    -0.117770683126E+04    0.17869E-02   -0.59967E-03  1539   0.104E-01    0.616E-01
RMM:  19    -0.117770707224E+04   -0.24099E-03   -0.48252E-03  1553   0.909E-02    0.320E-01
RMM:  20    -0.117770673284E+04    0.33940E-03   -0.90585E-04  1599   0.484E-02    0.257E-01
RMM:  21    -0.117770672877E+04    0.40759E-05   -0.26290E-04  1748   0.216E-02    0.217E-01
RMM:  22    -0.117770671565E+04    0.13115E-04   -0.85413E-05  1572   0.126E-02    0.149E-01
RMM:  23    -0.117770677222E+04   -0.56569E-04   -0.16402E-04  1563   0.159E-02    0.519E-02
RMM:  24    -0.117770676081E+04    0.11407E-04   -0.33806E-05  1539   0.819E-03    0.473E-02
RMM:  25    -0.117770676035E+04    0.45713E-06   -0.17118E-05  1560   0.577E-03    0.214E-02
RMM:  26    -0.117770676110E+04   -0.74403E-06   -0.10603E-05  1316   0.395E-03    0.134E-02
RMM:  27    -0.117770676152E+04   -0.41993E-06   -0.36653E-06  1180   0.289E-03
   1 F= -.11848588E+04 E0= -.11848588E+04  d E =-.118486E+04  mag=     0.0001
       N       E                     dE             d eps       ncg     rms          rms(c)
DAV:   1    -0.117770515110E+04    0.16100E-02   -0.31046E-01  1728   0.915E-01    0.135E-01
RMM:   2    -0.117770582427E+04   -0.67317E-03   -0.84336E-03  1551   0.142E-01    0.124E-01
RMM:   3    -0.117770590378E+04   -0.79507E-04   -0.18567E-03  1863   0.635E-02    0.113E-01
RMM:   4    -0.117770579926E+04    0.10451E-03   -0.32843E-04  1729   0.263E-02    0.873E-02
RMM:   5    -0.117770576020E+04    0.39068E-04   -0.58019E-04  1587   0.307E-02    0.540E-02
RMM:   6    -0.117770577375E+04   -0.13548E-04   -0.17334E-04  1953   0.187E-02    0.405E-02
RMM:   7    -0.117770576145E+04    0.12298E-04   -0.16018E-05  1550   0.558E-03    0.326E-02
RMM:   8    -0.117770576020E+04    0.12484E-05   -0.16070E-04  1555   0.136E-02    0.133E-02
RMM:   9    -0.117770575688E+04    0.33223E-05   -0.18611E-05  1532   0.706E-03    0.805E-03
RMM:  10    -0.117770575648E+04    0.39879E-06   -0.50408E-06  1353   0.328E-03
   2 F= -.11848582E+04 E0= -.11848582E+04  d E =0.550172E-03  mag=     0.0000
       N       E                     dE             d eps       ncg     rms          rms(c)
DAV:   1    -0.117770694237E+04   -0.11855E-02   -0.11057E-01  1696   0.543E-01    0.817E-02
RMM:   2    -0.117770710348E+04   -0.16111E-03   -0.22733E-03  1538   0.806E-02    0.728E-02
RMM:   3    -0.117770710517E+04   -0.16916E-05   -0.45248E-04  1766   0.347E-02    0.642E-02
RMM:   4    -0.117770706475E+04    0.40425E-04   -0.13338E-04  1629   0.166E-02    0.439E-02
RMM:   5    -0.117770706012E+04    0.46273E-05   -0.17046E-04  1583   0.167E-02    0.232E-02
RMM:   6    -0.117770706147E+04   -0.13505E-05   -0.33788E-05  1902   0.916E-03    0.219E-02
RMM:   7    -0.117770705745E+04    0.40235E-05   -0.37362E-06  1198   0.280E-03    0.159E-02
RMM:   8    -0.117770705676E+04    0.69186E-06   -0.35787E-05  1549   0.657E-03    0.689E-03
RMM:   9    -0.117770705593E+04    0.83183E-06   -0.47702E-06  1416   0.355E-03
   3 F= -.11848593E+04 E0= -.11848593E+04  d E =-.477351E-03  mag=    -0.0000
