       N       E                     dE             d eps       ncg     rms          rms(c)
DAV:   1     0.509780916985E+04    0.50978E+04   -0.16669E+05  1728   0.927E+02
DAV:   2     0.153907049910E+02   -0.50824E+04   -0.46193E+04  2464   0.217E+02
DAV:   3    -0.117976405757E+04   -0.11952E+04   -0.11799E+04  2016   0.116E+02
DAV:   4    -0.123188495668E+04   -0.52121E+02   -0.51815E+02  1952   0.322E+01
DAV:   5    -0.123334832817E+04   -0.14634E+01   -0.14598E+01  2336   0.528E+00    0.761E+01
RMM:   6    -0.124017369075E+04   -0.68254E+01   -0.98930E+01  1723   0.146E+01    0.835E+01
RMM:   7    -0.121792646480E+04    0.22247E+02   -0.15815E+01  1540   0.659E+00    0.655E+01
RMM:   8    -0.119947802135E+04    0.18448E+02   -0.17814E+01  1578   0.502E+00    0.582E+01
RMM:   9    -0.116580002673E+04    0.33678E+02   -0.54057E+01  1729   0.972E+00    0.270E+01
RMM:  10    -0.116564946434E+04    0.15056E+00   -0.31093E+00  1655   0.325E+00    0.241E+01
RMM:  11    -0.116228674615E+04    0.33627E+01   -0.19789E+01  1729   0.557E+00    0.117E+01
RMM:  12    -0.116205019705E+04    0.23655E+00   -0.25164E+00  1703   0.248E+00    0.784E+00
RMM:  13    -0.116172161358E+04    0.32858E+00   -0.57013E-01  1677   0.129E+00    0.586E+00
RMM:  14    -0.116160198201E+04    0.11963E+00   -0.59533E-01  1556   0.103E+00    0.506E+00
RMM:  15    -0.116147002606E+04    0.13196E+00   -0.33345E-01  1569   0.778E-01    0.231E+00
RMM:  16    -0.116145744027E+04    0.12586E-01   -0.63232E-02  1847   0.363E-01    0.163E+00
RMM:  17    -0.116145739179E+04    0.48472E-04   -0.55573E-03  1736   0.104E-01    0.163E+00
RMM:  18    -0.116145969011E+04   -0.22983E-02   -0.17604E-03  1735   0.548E-02    0.159E+00
RMM:  19    -0.116146290965E+04   -0.32195E-02   -0.72905E-04  1679   0.361E-02    0.165E+00
RMM:  20    -0.116146440045E+04   -0.14908E-02   -0.28309E-04  1878   0.233E-02    0.167E+00
RMM:  21    -0.116147841836E+04   -0.14018E-01   -0.58975E-03  1899   0.993E-02    0.207E+00
RMM:  22    -0.116153174990E+04   -0.53332E-01   -0.63542E-02  2569   0.321E-01    0.372E+00
RMM:  23    -0.116152229727E+04    0.94526E-02   -0.12328E-03  1843   0.546E-02    0.359E+00
RMM:  24    -0.116152541547E+04   -0.31182E-02   -0.11519E-03  1708   0.369E-02    0.395E+00
RMM:  25    -0.116152637595E+04   -0.96048E-03   -0.21895E-04  1629   0.218E-02    0.402E+00
RMM:  26    -0.116153810783E+04   -0.11732E-01   -0.99186E-03  2523   0.120E-01    0.432E+00
RMM:  27    -0.116152961368E+04    0.84942E-02   -0.55885E-03  2452   0.863E-02    0.397E+00
RMM:  28    -0.116152918277E+04    0.43091E-03   -0.30861E-04  1739   0.234E-02    0.386E+00
RMM:  29    -0.116153328652E+04   -0.41038E-02   -0.11623E-03  2011   0.430E-02    0.425E+00
RMM:  30    -0.116152533336E+04    0.79532E-02   -0.19081E-03  2238   0.502E-02    0.387E+00
RMM:  31    -0.116151566590E+04    0.96675E-02   -0.83177E-03  2572   0.104E-01    0.296E+00
RMM:  32    -0.116151117394E+04    0.44920E-02   -0.64506E-03  2569   0.946E-02    0.219E+00
RMM:  33    -0.116150921476E+04    0.19592E-02   -0.65998E-03  2568   0.980E-02    0.133E+00
RMM:  34    -0.116150841868E+04    0.79608E-03   -0.44177E-03  2489   0.796E-02    0.605E-01
RMM:  35    -0.116150818652E+04    0.23216E-03   -0.13592E-03  2136   0.453E-02    0.229E-01
RMM:  36    -0.116150806313E+04    0.12339E-03   -0.72525E-04  1991   0.338E-02    0.229E-01
RMM:  37    -0.116150818342E+04   -0.12030E-03   -0.11977E-04  1604   0.162E-02    0.172E-01
RMM:  38    -0.116150825845E+04   -0.75031E-04   -0.63515E-05  1616   0.110E-02    0.160E-01
RMM:  39    -0.116150823368E+04    0.24779E-04   -0.65050E-05  1676   0.989E-03    0.104E-01
RMM:  40    -0.116150822701E+04    0.66619E-05   -0.29667E-05  1613   0.683E-03    0.977E-02
RMM:  41    -0.116150822567E+04    0.13450E-05   -0.15113E-05  1459   0.524E-03    0.717E-02
RMM:  42    -0.116150822477E+04    0.89868E-06   -0.12563E-05  1580   0.470E-03    0.375E-02
RMM:  43    -0.116150822837E+04   -0.35994E-05   -0.59935E-06  1409   0.387E-03    0.146E-02
RMM:  44    -0.116150823292E+04   -0.45466E-05   -0.17164E-06  1061   0.257E-03    0.179E-02
RMM:  45    -0.116150823432E+04   -0.14012E-05   -0.10383E-06  1040   0.170E-03    0.154E-02
RMM:  46    -0.116150823338E+04    0.93626E-06   -0.20721E-06  1053   0.209E-03
   1 F= -.11615082E+04 E0= -.11615068E+04  d E =-.116151E+04  mag=    -0.0000
       N       E                     dE             d eps       ncg     rms          rms(c)
DAV:   1    -0.116149099477E+04    0.17240E-01   -0.36680E+00  1632   0.290E+00    0.512E-01
RMM:   2    -0.116149872298E+04   -0.77282E-02   -0.94144E-02  1631   0.559E-01    0.500E-01
RMM:   3    -0.116150093249E+04   -0.22095E-02   -0.27742E-02  1854   0.231E-01    0.460E-01
RMM:   4    -0.116150038058E+04    0.55191E-03   -0.51182E-03  1863   0.905E-02    0.476E-01
RMM:   5    -0.116149973264E+04    0.64794E-03   -0.88655E-04  1745   0.397E-02    0.437E-01
RMM:   6    -0.116149840119E+04    0.13315E-02   -0.50273E-03  1537   0.883E-02    0.292E-01
RMM:   7    -0.116149895991E+04   -0.55872E-03   -0.12761E-03  1892   0.484E-02    0.440E-01
RMM:   8    -0.116149878340E+04    0.17652E-03   -0.27265E-03  1550   0.650E-02    0.172E-01
RMM:   9    -0.116149905728E+04   -0.27389E-03   -0.57489E-04  1916   0.350E-02    0.183E-01
RMM:  10    -0.116149904531E+04    0.11968E-04   -0.82017E-05  1904   0.124E-02    0.183E-01
RMM:  11    -0.116149924557E+04   -0.20026E-03   -0.21010E-04  1625   0.171E-02    0.204E-01
RMM:  12    -0.116150034746E+04   -0.11019E-02   -0.98446E-04  1996   0.341E-02    0.288E-01
RMM:  13    -0.116149934063E+04    0.10068E-02   -0.41390E-04  1621   0.233E-02    0.228E-01
RMM:  14    -0.116149842080E+04    0.91983E-03   -0.15499E-03  2082   0.417E-02    0.129E-01
RMM:  15    -0.116149824498E+04    0.17582E-03   -0.31264E-04  1788   0.222E-02    0.100E-01
RMM:  16    -0.116149832431E+04   -0.79323E-04   -0.60732E-05  1910   0.107E-02    0.992E-02
RMM:  17    -0.116149836843E+04   -0.44121E-04   -0.66182E-06  1375   0.393E-03    0.104E-01
RMM:  18    -0.116149819228E+04    0.17615E-03   -0.96190E-05  1921   0.108E-02    0.775E-02
RMM:  19    -0.116149814959E+04    0.42689E-04   -0.38666E-05  1759   0.777E-03    0.634E-02
RMM:  20    -0.116149809973E+04    0.49861E-04   -0.19706E-04  2284   0.152E-02    0.266E-02
RMM:  21    -0.116149810930E+04   -0.95757E-05   -0.95151E-06  1554   0.471E-03    0.203E-02
RMM:  22    -0.116149811591E+04   -0.66082E-05   -0.57480E-06  1328   0.379E-03    0.168E-02
RMM:  23    -0.116149810737E+04    0.85411E-05   -0.77954E-06  1510   0.363E-03    0.125E-02
RMM:  24    -0.116149810677E+04    0.59990E-06   -0.25476E-06  1092   0.310E-03
   2 F= -.11614981E+04 E0= -.11614979E+04  d E =0.101266E-01  mag=    -0.0000
       N       E                     dE             d eps       ncg     rms          rms(c)
DAV:   1    -0.116151075732E+04   -0.12650E-01   -0.15194E+00  1696   0.186E+00    0.326E-01
RMM:   2    -0.116151306874E+04   -0.23114E-02   -0.30424E-02  1540   0.351E-01    0.321E-01
RMM:   3    -0.116151389848E+04   -0.82974E-03   -0.10175E-02  1781   0.153E-01    0.304E-01
RMM:   4    -0.116151402095E+04   -0.12247E-03   -0.21635E-03  1932   0.605E-02    0.372E-01
RMM:   5    -0.116151344843E+04    0.57253E-03   -0.32149E-04  1588   0.241E-02    0.254E-01
RMM:   6    -0.116151330295E+04    0.14548E-03   -0.18416E-03  1546   0.519E-02    0.379E-01
RMM:   7    -0.116151274695E+04    0.55600E-03   -0.62774E-04  1759   0.331E-02    0.186E-01
RMM:   8    -0.116151281098E+04   -0.64025E-04   -0.34179E-04  1568   0.258E-02    0.102E-01
RMM:   9    -0.116151288199E+04   -0.71018E-04   -0.28551E-04  1579   0.220E-02    0.680E-02
RMM:  10    -0.116151289687E+04   -0.14873E-04   -0.88472E-05  1876   0.124E-02    0.606E-02
RMM:  11    -0.116151288397E+04    0.12892E-04   -0.12882E-05  1573   0.497E-03    0.602E-02
RMM:  12    -0.116151292100E+04   -0.37029E-04   -0.45982E-06  1158   0.319E-03    0.597E-02
RMM:  13    -0.116151278153E+04    0.13947E-03   -0.10080E-04  2023   0.110E-02    0.354E-02
RMM:  14    -0.116151277832E+04    0.32086E-05   -0.24665E-05  1665   0.634E-03    0.261E-02
RMM:  15    -0.116151278903E+04   -0.10704E-04   -0.32702E-05  1732   0.730E-03    0.159E-02
RMM:  16    -0.116151279436E+04   -0.53331E-05   -0.26916E-06  1079   0.315E-03    0.159E-02
RMM:  17    -0.116151277039E+04    0.23969E-04   -0.64775E-06  1273   0.334E-03    0.136E-02
RMM:  18    -0.116151277445E+04   -0.40629E-05   -0.17442E-06  1055   0.212E-03    0.125E-02
RMM:  19    -0.116151278126E+04   -0.68048E-05   -0.47715E-06  1362   0.274E-03    0.738E-03
RMM:  20    -0.116151278310E+04   -0.18382E-05   -0.82889E-07  1020   0.196E-03    0.626E-03
RMM:  21    -0.116151278407E+04   -0.97823E-06   -0.49206E-07  1011   0.106E-03
   3 F= -.11615128E+04 E0= -.11615120E+04  d E =-.455069E-02  mag=     0.0000
       N       E                     dE             d eps       ncg     rms          rms(c)
DAV:   1    -0.116151239023E+04    0.39287E-03   -0.81459E-01  1696   0.140E+00    0.262E-01
RMM:   2    -0.116151350468E+04   -0.11145E-02   -0.13767E-02  1538   0.227E-01    0.363E-01
RMM:   3    -0.116151354312E+04   -0.38445E-04   -0.41043E-03  1772   0.104E-01    0.234E-01
RMM:   4    -0.116151326833E+04    0.27480E-03   -0.96442E-04  1778   0.428E-02    0.195E-01
RMM:   5    -0.116151276031E+04    0.50801E-03   -0.10783E-03  1542   0.400E-02    0.200E-01
RMM:   6    -0.116151276868E+04   -0.83696E-05   -0.20766E-04  1822   0.212E-02    0.222E-01
RMM:   7    -0.116151273423E+04    0.34451E-04   -0.20692E-03  2027   0.495E-02    0.107E-01
RMM:   8    -0.116151279622E+04   -0.61992E-04   -0.12968E-04  2012   0.173E-02    0.921E-02
RMM:   9    -0.116151262737E+04    0.16885E-03   -0.19424E-04  1600   0.153E-02    0.600E-02
RMM:  10    -0.116151254952E+04    0.77857E-04   -0.49769E-04  1711   0.231E-02    0.221E-02
RMM:  11    -0.116151255527E+04   -0.57555E-05   -0.30635E-05  1622   0.936E-03    0.192E-02
RMM:  12    -0.116151255826E+04   -0.29858E-05   -0.42427E-05  1596   0.842E-03    0.126E-02
RMM:  13    -0.116151256499E+04   -0.67335E-05   -0.76495E-06  1489   0.427E-03    0.140E-02
RMM:  14    -0.116151254464E+04    0.20354E-04   -0.14472E-05  1571   0.485E-03    0.118E-02
RMM:  15    -0.116151254633E+04   -0.16950E-05   -0.20731E-06  1073   0.286E-03    0.105E-02
RMM:  16    -0.116151254522E+04    0.11083E-05   -0.86023E-06  1531   0.351E-03    0.522E-03
RMM:  17    -0.116151254614E+04   -0.91271E-06   -0.17805E-06  1023   0.234E-03
   4 F= -.11615125E+04 E0= -.11615120E+04  d E =0.237937E-03  mag=    -0.0000
       N       E                     dE             d eps       ncg     rms          rms(c)
DAV:   1    -0.116151408172E+04   -0.15365E-02   -0.22102E-01  1664   0.728E-01    0.135E-01
RMM:   2    -0.116151437451E+04   -0.29278E-03   -0.37121E-03  1538   0.118E-01    0.182E-01
RMM:   3    -0.116151439133E+04   -0.16821E-04   -0.10981E-03  1764   0.536E-02    0.122E-01
RMM:   4    -0.116151432192E+04    0.69406E-04   -0.26043E-04  1787   0.223E-02    0.102E-01
RMM:   5    -0.116151415456E+04    0.16736E-03   -0.34704E-04  1542   0.225E-02    0.577E-02
RMM:   6    -0.116151418436E+04   -0.29793E-04   -0.38526E-04  1545   0.241E-02    0.646E-02
RMM:   7    -0.116151416660E+04    0.17761E-04   -0.81635E-05  1851   0.130E-02    0.423E-02
RMM:   8    -0.116151418169E+04   -0.15091E-04   -0.14468E-05  1659   0.539E-03    0.460E-02
RMM:   9    -0.116151420558E+04   -0.23887E-04   -0.49987E-05  1654   0.791E-03    0.332E-02
RMM:  10    -0.116151418287E+04    0.22705E-04   -0.49130E-06  1246   0.371E-03    0.321E-02
RMM:  11    -0.116151411788E+04    0.64987E-04   -0.15945E-05  1351   0.419E-03    0.250E-02
RMM:  12    -0.116151411322E+04    0.46648E-05   -0.36066E-05  1790   0.645E-03    0.147E-02
RMM:  13    -0.116151413209E+04   -0.18867E-04   -0.13787E-05  1637   0.521E-03    0.885E-03
RMM:  14    -0.116151413587E+04   -0.37849E-05   -0.39910E-06  1293   0.306E-03    0.726E-03
RMM:  15    -0.116151413626E+04   -0.38921E-06   -0.66492E-07  1020   0.191E-03
   5 F= -.11615141E+04 E0= -.11615135E+04  d E =-.135219E-02  mag=     0.0000
       N       E                     dE             d eps       ncg     rms          rms(c)
DAV:   1    -0.116151547678E+04   -0.13409E-02   -0.35741E-01  1664   0.973E-01    0.149E-01
RMM:   2    -0.116151580023E+04   -0.32345E-03   -0.52213E-03  1544   0.136E-01    0.203E-01
RMM:   3    -0.116151583326E+04   -0.33029E-04   -0.16251E-03  1787   0.649E-02    0.139E-01
RMM:   4    -0.116151572072E+04    0.11254E-03   -0.32954E-04  1739   0.268E-02    0.120E-01
RMM:   5    -0.116151549327E+04    0.22745E-03   -0.51982E-04  1540   0.282E-02    0.146E-01
RMM:   6    -0.116151544938E+04    0.43897E-04   -0.85066E-05  1752   0.143E-02    0.132E-01
RMM:   7    -0.116151538706E+04    0.62321E-04   -0.33108E-05  1539   0.826E-03    0.806E-02
RMM:   8    -0.116151547056E+04   -0.83504E-04   -0.23145E-04  1745   0.187E-02    0.391E-02
RMM:   9    -0.116151547144E+04   -0.88111E-06   -0.16727E-05  1603   0.696E-03    0.378E-02
RMM:  10    -0.116151538694E+04    0.84499E-04   -0.11597E-05  1270   0.476E-03    0.317E-02
RMM:  11    -0.116151533658E+04    0.50364E-04   -0.33410E-05  1604   0.613E-03    0.199E-02
RMM:  12    -0.116151535520E+04   -0.18625E-04   -0.20689E-05  1602   0.559E-03    0.148E-02
RMM:  13    -0.116151536175E+04   -0.65437E-05   -0.74809E-06  1508   0.393E-03    0.149E-02
RMM:  14    -0.116151536425E+04   -0.25062E-05   -0.10134E-06  1034   0.190E-03    0.132E-02
RMM:  15    -0.116151534263E+04    0.21625E-04   -0.48606E-06  1099   0.265E-03    0.109E-02
RMM:  16    -0.116151534936E+04   -0.67313E-05   -0.11763E-06  1043   0.153E-03    0.976E-03
RMM:  17    -0.116151535727E+04   -0.79079E-05   -0.53924E-06  1376   0.271E-03    0.674E-03
RMM:  18    -0.116151536033E+04   -0.30634E-05   -0.10692E-06  1030   0.216E-03    0.619E-03
RMM:  19    -0.116151536332E+04   -0.29906E-05   -0.11377E-06  1033   0.153E-03    0.591E-03
RMM:  20    -0.116151536568E+04   -0.23625E-05   -0.93352E-07  1020   0.141E-03    0.450E-03
RMM:  21    -0.116151536734E+04   -0.16568E-05   -0.11921E-06  1027   0.153E-03    0.386E-03
RMM:  22    -0.116151536804E+04   -0.69967E-06   -0.38203E-07   991   0.100E-03
   6 F= -.11615154E+04 E0= -.11615147E+04  d E =-.123178E-02  mag=    -0.0000
       N       E                     dE             d eps       ncg     rms          rms(c)
DAV:   1    -0.116151536810E+04   -0.75543E-06   -0.16114E-05  1920   0.685E-03    0.258E-03
RMM:   2    -0.116151536807E+04    0.22672E-07   -0.37740E-07   944   0.108E-03
   7 F= -.11615154E+04 E0= -.11615147E+04  d E =-.123181E-02  mag=    -0.0000
       N       E                     dE             d eps       ncg     rms          rms(c)
DAV:   1    -0.116151622306E+04   -0.85497E-03   -0.17425E-01  1664   0.685E-01    0.784E-02
RMM:   2    -0.116151638831E+04   -0.16525E-03   -0.23150E-03  1540   0.895E-02    0.748E-02
RMM:   3    -0.116151644092E+04   -0.52609E-04   -0.75011E-04  1806   0.428E-02    0.794E-02
RMM:   4    -0.116151644496E+04   -0.40365E-05   -0.12264E-04  1876   0.165E-02    0.840E-02
RMM:   5    -0.116151643843E+04    0.65340E-05   -0.10959E-05  1421   0.476E-03    0.829E-02
RMM:   6    -0.116151642725E+04    0.11177E-04   -0.18307E-06  1053   0.236E-03    0.744E-02
RMM:   7    -0.116151637365E+04    0.53597E-04   -0.26860E-04  2270   0.184E-02    0.265E-02
RMM:   8    -0.116151638617E+04   -0.12517E-04   -0.19404E-05  1615   0.623E-03    0.168E-02
RMM:   9    -0.116151638554E+04    0.62985E-06   -0.11051E-05  1543   0.446E-03    0.111E-02
RMM:  10    -0.116151638837E+04   -0.28360E-05   -0.74413E-06  1435   0.331E-03    0.102E-02
RMM:  11    -0.116151638923E+04   -0.85232E-06   -0.99097E-07  1035   0.196E-03
   8 F= -.11615164E+04 E0= -.11615158E+04  d E =-.102115E-02  mag=    -0.0000
       N       E                     dE             d eps       ncg     rms          rms(c)
DAV:   1    -0.116151655103E+04   -0.16265E-03   -0.84331E-02  1664   0.477E-01    0.562E-02
RMM:   2    -0.116151664256E+04   -0.91531E-04   -0.11349E-03  1540   0.625E-02    0.536E-02
RMM:   3    -0.116151667126E+04   -0.28705E-04   -0.35947E-04  1798   0.299E-02    0.569E-02
RMM:   4    -0.116151667090E+04    0.35630E-06   -0.62991E-05  1813   0.119E-02    0.533E-02
RMM:   5    -0.116151667553E+04   -0.46271E-05   -0.65149E-06  1256   0.390E-03    0.635E-02
RMM:   6    -0.116151665746E+04    0.18075E-04   -0.24049E-06  1056   0.257E-03    0.471E-02
RMM:   7    -0.116151670423E+04   -0.46769E-04   -0.11511E-04  2119   0.122E-02    0.275E-02
RMM:   8    -0.116151675199E+04   -0.47762E-04   -0.81356E-06  1218   0.401E-03    0.312E-02
RMM:   9    -0.116151659830E+04    0.15369E-03   -0.52700E-05  1725   0.777E-03    0.190E-02
RMM:  10    -0.116151663113E+04   -0.32835E-04   -0.63316E-06  1205   0.386E-03    0.148E-02
RMM:  11    -0.116151664130E+04   -0.10162E-04   -0.17033E-05  1621   0.427E-03    0.967E-03
RMM:  12    -0.116151664760E+04   -0.63058E-05   -0.17626E-06  1054   0.248E-03    0.695E-03
RMM:  13    -0.116151665155E+04   -0.39474E-05   -0.19184E-06  1045   0.192E-03    0.690E-03
RMM:  14    -0.116151665172E+04   -0.17056E-06   -0.32866E-07  1000   0.123E-03
   9 F= -.11615167E+04 E0= -.11615160E+04  d E =-.128365E-02  mag=     0.0000
       N       E                     dE             d eps       ncg     rms          rms(c)
DAV:   1    -0.116151753084E+04   -0.87929E-03   -0.23017E-01  1664   0.782E-01    0.910E-02
RMM:   2    -0.116151777612E+04   -0.24529E-03   -0.30605E-03  1536   0.102E-01    0.124E-01
RMM:   3    -0.116151783028E+04   -0.54160E-04   -0.96758E-04  1800   0.498E-02    0.876E-02
RMM:   4    -0.116151782824E+04    0.20408E-05   -0.17355E-04  1855   0.194E-02    0.821E-02
RMM:   5    -0.116151781389E+04    0.14355E-04   -0.38925E-05  1582   0.870E-03    0.100E-01
RMM:   6    -0.116151779035E+04    0.23534E-04   -0.99030E-06  1542   0.480E-03    0.894E-02
RMM:   7    -0.116151776430E+04    0.26057E-04   -0.15787E-04  1980   0.147E-02    0.334E-02
RMM:   8    -0.116151783142E+04   -0.67119E-04   -0.45176E-05  1696   0.893E-03    0.267E-02
RMM:   9    -0.116151778298E+04    0.48440E-04   -0.24237E-05  1621   0.652E-03    0.237E-02
RMM:  10    -0.116151776263E+04    0.20350E-04   -0.10928E-05  1443   0.461E-03    0.174E-02
RMM:  11    -0.116151776476E+04   -0.21317E-05   -0.19409E-05  1557   0.466E-03    0.103E-02
RMM:  12    -0.116151776884E+04   -0.40815E-05   -0.36182E-06  1276   0.276E-03    0.677E-03
RMM:  13    -0.116151777060E+04   -0.17622E-05   -0.33362E-06  1209   0.250E-03    0.578E-03
RMM:  14    -0.116151776961E+04    0.99696E-06   -0.61037E-07  1016   0.160E-03
  10 F= -.11615178E+04 E0= -.11615171E+04  d E =-.111788E-02  mag=    -0.0000
