       N       E                     dE             d eps       ncg     rms          rms(c)
DAV:   1     0.492076187276E+04    0.49208E+04   -0.18053E+05  1856   0.962E+02
DAV:   2    -0.257595296900E+02   -0.49465E+04   -0.45388E+04  2464   0.219E+02
DAV:   3    -0.119891504780E+04   -0.11732E+04   -0.11660E+04  1952   0.115E+02
DAV:   4    -0.125069988886E+04   -0.51785E+02   -0.51394E+02  1952   0.325E+01
DAV:   5    -0.125206028273E+04   -0.13604E+01   -0.13546E+01  2272   0.493E+00    0.835E+01
RMM:   6    -0.123655962710E+04    0.15501E+02   -0.10100E+02  1630   0.153E+01    0.869E+01
RMM:   7    -0.122246419289E+04    0.14095E+02   -0.15089E+01  1543   0.665E+00    0.566E+01
RMM:   8    -0.120630019585E+04    0.16164E+02   -0.11011E+01  1548   0.508E+00    0.398E+01
RMM:   9    -0.118688166503E+04    0.19419E+02   -0.29336E+01  1654   0.701E+00    0.308E+01
RMM:  10    -0.117823990166E+04    0.86418E+01   -0.13613E+01  1604   0.564E+00    0.211E+01
RMM:  11    -0.117546724944E+04    0.27727E+01   -0.10639E+01  1570   0.458E+00    0.134E+01
RMM:  12    -0.117626757381E+04   -0.80032E+00   -0.65350E+00  1540   0.362E+00    0.775E+00
RMM:  13    -0.117606955736E+04    0.19802E+00   -0.70311E-01  1592   0.169E+00    0.597E+00
RMM:  14    -0.117581093872E+04    0.25862E+00   -0.42525E-01  1539   0.107E+00    0.311E+00
RMM:  15    -0.117566615483E+04    0.14478E+00   -0.30182E-01  1536   0.730E-01    0.198E+00
RMM:  16    -0.117565774079E+04    0.84140E-02   -0.12913E-01  1556   0.560E-01    0.954E-01
RMM:  17    -0.117565827535E+04   -0.53456E-03   -0.24114E-02  1601   0.287E-01    0.505E-01
RMM:  18    -0.117565735983E+04    0.91553E-03   -0.81151E-03  1592   0.157E-01    0.459E-01
RMM:  19    -0.117565847969E+04   -0.11199E-02   -0.43272E-03  1622   0.104E-01    0.325E-01
RMM:  20    -0.117565843321E+04    0.46482E-04   -0.15374E-03  1623   0.704E-02    0.177E-01
RMM:  21    -0.117565851562E+04   -0.82410E-04   -0.54763E-04  1564   0.306E-02    0.144E-01
RMM:  22    -0.117565854040E+04   -0.24784E-04   -0.12857E-04  1570   0.175E-02    0.979E-02
RMM:  23    -0.117565854965E+04   -0.92428E-05   -0.60775E-05  1605   0.112E-02    0.624E-02
RMM:  24    -0.117565855576E+04   -0.61166E-05   -0.26045E-05  1563   0.784E-03    0.349E-02
RMM:  25    -0.117565855925E+04   -0.34839E-05   -0.10920E-05  1521   0.487E-03    0.238E-02
RMM:  26    -0.117565855978E+04   -0.53619E-06   -0.39352E-06  1156   0.306E-03
   1 F= -.11828422E+04 E0= -.11828416E+04  d E =-.118284E+04  mag=    -0.9897
       N       E                     dE             d eps       ncg     rms          rms(c)
DAV:   1    -0.117565680176E+04    0.17575E-02   -0.38146E-01  1696   0.139E+00    0.163E-01
RMM:   2    -0.117565839921E+04   -0.15974E-02   -0.18697E-02  1603   0.222E-01    0.135E-01
RMM:   3    -0.117565855964E+04   -0.16043E-03   -0.30921E-03  1759   0.846E-02    0.119E-01
RMM:   4    -0.117565850774E+04    0.51904E-04   -0.56595E-04  1769   0.345E-02    0.979E-02
RMM:   5    -0.117565850492E+04    0.28202E-05   -0.63713E-04  1570   0.319E-02    0.457E-02
RMM:   6    -0.117565853565E+04   -0.30732E-04   -0.16932E-04  1772   0.190E-02    0.384E-02
RMM:   7    -0.117565851833E+04    0.17322E-04   -0.34113E-05  1541   0.877E-03    0.219E-02
RMM:   8    -0.117565852403E+04   -0.56980E-05   -0.54429E-05  1545   0.847E-03    0.102E-02
RMM:   9    -0.117565852374E+04    0.28404E-06   -0.56693E-06  1439   0.440E-03
   2 F= -.11828429E+04 E0= -.11828423E+04  d E =-.695306E-03  mag=    -0.9898
       N       E                     dE             d eps       ncg     rms          rms(c)
DAV:   1    -0.117565892353E+04   -0.39950E-03   -0.49244E-02  1632   0.497E-01    0.593E-02
RMM:   2    -0.117565910370E+04   -0.18018E-03   -0.21554E-03  1585   0.771E-02    0.479E-02
RMM:   3    -0.117565911237E+04   -0.86678E-05   -0.29542E-04  1659   0.282E-02    0.412E-02
RMM:   4    -0.117565910308E+04    0.92916E-05   -0.71909E-05  1660   0.125E-02    0.288E-02
RMM:   5    -0.117565910458E+04   -0.14989E-05   -0.57289E-05  1559   0.102E-02    0.159E-02
RMM:   6    -0.117565910625E+04   -0.16695E-05   -0.15163E-05  1689   0.607E-03    0.124E-02
RMM:   7    -0.117565910439E+04    0.18620E-05   -0.47979E-06  1341   0.295E-03    0.720E-03
RMM:   8    -0.117565910504E+04   -0.65359E-06   -0.36855E-06  1267   0.245E-03
   3 F= -.11828432E+04 E0= -.11828427E+04  d E =-.101239E-02  mag=    -0.9898
       N       E                     dE             d eps       ncg     rms          rms(c)
DAV:   1    -0.117565932229E+04   -0.21790E-03   -0.15436E-01  1856   0.847E-01    0.104E-01
RMM:   2    -0.117565981611E+04   -0.49383E-03   -0.62965E-03  1587   0.127E-01    0.817E-02
RMM:   3    -0.117565985233E+04   -0.36215E-04   -0.84354E-04  1653   0.466E-02    0.688E-02
RMM:   4    -0.117565986610E+04   -0.13772E-04   -0.17417E-04  1698   0.201E-02    0.567E-02
RMM:   5    -0.117565987920E+04   -0.13096E-04   -0.55142E-05  1557   0.118E-02    0.371E-02
RMM:   6    -0.117565990884E+04   -0.29643E-04   -0.74729E-05  1541   0.118E-02    0.152E-02
RMM:   7    -0.117565991119E+04   -0.23499E-05   -0.10369E-05  1575   0.567E-03    0.947E-03
RMM:   8    -0.117565991126E+04   -0.67568E-07   -0.52291E-06  1340   0.329E-03
   4 F= -.11828444E+04 E0= -.11828438E+04  d E =-.119543E-02  mag=    -0.9895
       N       E                     dE             d eps       ncg     rms          rms(c)
DAV:   1    -0.117565890701E+04    0.10042E-02   -0.33305E-01  1568   0.124E+00    0.152E-01
RMM:   2    -0.117565995842E+04   -0.10514E-02   -0.13525E-02  1587   0.186E-01    0.121E-01
RMM:   3    -0.117566005083E+04   -0.92402E-04   -0.18772E-03  1651   0.683E-02    0.102E-01
RMM:   4    -0.117566007491E+04   -0.24081E-04   -0.30775E-04  1727   0.280E-02    0.843E-02
RMM:   5    -0.117566011208E+04   -0.37170E-04   -0.11139E-04  1571   0.167E-02    0.576E-02
RMM:   6    -0.117566018701E+04   -0.74938E-04   -0.16728E-04  1561   0.175E-02    0.232E-02
RMM:   7    -0.117566019177E+04   -0.47554E-05   -0.19447E-05  1580   0.797E-03    0.150E-02
RMM:   8    -0.117566019243E+04   -0.66209E-06   -0.12955E-05  1490   0.499E-03    0.844E-03
RMM:   9    -0.117566019326E+04   -0.82697E-06   -0.26667E-06  1112   0.297E-03
   5 F= -.11828452E+04 E0= -.11828447E+04  d E =-.204797E-02  mag=    -0.9889
       N       E                     dE             d eps       ncg     rms          rms(c)
DAV:   1    -0.117566061835E+04   -0.42591E-03   -0.81566E-02  1664   0.557E-01    0.698E-02
RMM:   2    -0.117566079808E+04   -0.17974E-03   -0.24577E-03  1580   0.843E-02    0.575E-02
RMM:   3    -0.117566081224E+04   -0.14160E-04   -0.34977E-04  1670   0.322E-02    0.503E-02
RMM:   4    -0.117566081634E+04   -0.40918E-05   -0.72680E-05  1735   0.137E-02    0.429E-02
RMM:   5    -0.117566082616E+04   -0.98241E-05   -0.43114E-05  1548   0.978E-03    0.230E-02
RMM:   6    -0.117566084061E+04   -0.14448E-04   -0.36649E-05  1541   0.825E-03    0.112E-02
RMM:   7    -0.117566084009E+04    0.51999E-06   -0.45905E-06  1330   0.387E-03
   6 F= -.11828461E+04 E0= -.11828456E+04  d E =-.924262E-03  mag=    -0.9888
       N       E                     dE             d eps       ncg     rms          rms(c)
DAV:   1    -0.117566069414E+04    0.14647E-03   -0.20376E-01  1632   0.882E-01    0.111E-01
RMM:   2    -0.117566113424E+04   -0.44010E-03   -0.61330E-03  1579   0.133E-01    0.910E-02
RMM:   3    -0.117566117083E+04   -0.36596E-04   -0.89223E-04  1669   0.506E-02    0.799E-02
RMM:   4    -0.117566118008E+04   -0.92469E-05   -0.15606E-04  1753   0.208E-02    0.686E-02
RMM:   5    -0.117566120946E+04   -0.29380E-04   -0.10639E-04  1552   0.153E-02    0.373E-02
RMM:   6    -0.117566124840E+04   -0.38940E-04   -0.95527E-05  1558   0.132E-02    0.182E-02
RMM:   7    -0.117566124708E+04    0.13225E-05   -0.11373E-05  1511   0.613E-03    0.119E-02
RMM:   8    -0.117566124867E+04   -0.15988E-05   -0.11264E-05  1485   0.442E-03    0.526E-03
RMM:   9    -0.117566124911E+04   -0.44030E-06   -0.14292E-06  1032   0.226E-03
   7 F= -.11828470E+04 E0= -.11828464E+04  d E =-.177170E-02  mag=    -0.9886
       N       E                     dE             d eps       ncg     rms          rms(c)
DAV:   1    -0.117565757526E+04    0.36734E-02   -0.81469E-01  1536   0.176E+00    0.221E-01
RMM:   2    -0.117565938323E+04   -0.18080E-02   -0.24472E-02  1579   0.266E-01    0.182E-01
RMM:   3    -0.117565953086E+04   -0.14763E-03   -0.35523E-03  1669   0.101E-01    0.159E-01
RMM:   4    -0.117565952378E+04    0.70819E-05   -0.62246E-04  1731   0.414E-02    0.136E-01
RMM:   5    -0.117565957632E+04   -0.52538E-04   -0.41547E-04  1550   0.305E-02    0.759E-02
RMM:   6    -0.117565973941E+04   -0.16309E-03   -0.41729E-04  1560   0.277E-02    0.363E-02
RMM:   7    -0.117565973245E+04    0.69576E-05   -0.48813E-05  1556   0.126E-02    0.241E-02
RMM:   8    -0.117565973947E+04   -0.70234E-05   -0.45908E-05  1538   0.894E-03    0.106E-02
RMM:   9    -0.117565974166E+04   -0.21899E-05   -0.59300E-06  1380   0.454E-03    0.803E-03
RMM:  10    -0.117565974091E+04    0.74849E-06   -0.82678E-06  1445   0.386E-03
   8 F= -.11828464E+04 E0= -.11828458E+04  d E =-.113818E-02  mag=    -0.9882
       N       E                     dE             d eps       ncg     rms          rms(c)
DAV:   1    -0.117566003141E+04   -0.28974E-03   -0.41235E-01  1536   0.126E+00    0.156E-01
RMM:   2    -0.117566093507E+04   -0.90366E-03   -0.12356E-02  1579   0.189E-01    0.128E-01
RMM:   3    -0.117566101038E+04   -0.75307E-04   -0.17920E-03  1667   0.718E-02    0.113E-01
RMM:   4    -0.117566101785E+04   -0.74753E-05   -0.31535E-04  1753   0.297E-02    0.971E-02
RMM:   5    -0.117566105672E+04   -0.38866E-04   -0.22003E-04  1552   0.220E-02    0.515E-02
RMM:   6    -0.117566112633E+04   -0.69617E-04   -0.18959E-04  1554   0.188E-02    0.245E-02
RMM:   7    -0.117566112365E+04    0.26862E-05   -0.21390E-05  1529   0.851E-03    0.167E-02
RMM:   8    -0.117566112614E+04   -0.24915E-05   -0.23583E-05  1509   0.631E-03    0.729E-03
RMM:   9    -0.117566112709E+04   -0.95018E-06   -0.29223E-06  1111   0.317E-03
   9 F= -.11828471E+04 E0= -.11828465E+04  d E =-.190141E-02  mag=    -0.9885
       N       E                     dE             d eps       ncg     rms          rms(c)
DAV:   1    -0.117566132130E+04   -0.19516E-03   -0.13265E-01  1600   0.667E-01    0.875E-02
RMM:   2    -0.117566154237E+04   -0.22107E-03   -0.32571E-03  1589   0.970E-02    0.714E-02
RMM:   3    -0.117566155985E+04   -0.17483E-04   -0.46972E-04  1654   0.366E-02    0.628E-02
RMM:   4    -0.117566156618E+04   -0.63238E-05   -0.93124E-05  1726   0.159E-02    0.512E-02
RMM:   5    -0.117566159284E+04   -0.26662E-04   -0.10532E-04  1551   0.144E-02    0.189E-02
RMM:   6    -0.117566160321E+04   -0.10371E-04   -0.25338E-05  1601   0.784E-03    0.121E-02
RMM:   7    -0.117566160267E+04    0.54246E-06   -0.42813E-06  1236   0.363E-03
  10 F= -.11828479E+04 E0= -.11828473E+04  d E =-.767041E-03  mag=    -0.9884
       N       E                     dE             d eps       ncg     rms          rms(c)
DAV:   1    -0.117566068843E+04    0.91477E-03   -0.46566E-01  1536   0.125E+00    0.165E-01
RMM:   2    -0.117566145383E+04   -0.76540E-03   -0.11523E-02  1591   0.183E-01    0.135E-01
RMM:   3    -0.117566152176E+04   -0.67925E-04   -0.16452E-03  1652   0.694E-02    0.120E-01
RMM:   4    -0.117566154270E+04   -0.20943E-04   -0.34279E-04  1729   0.304E-02    0.977E-02
RMM:   5    -0.117566166579E+04   -0.12309E-03   -0.38697E-04  1548   0.278E-02    0.356E-02
RMM:   6    -0.117566170631E+04   -0.40522E-04   -0.90132E-05  1628   0.149E-02    0.229E-02
RMM:   7    -0.117566170379E+04    0.25245E-05   -0.16497E-05  1536   0.685E-03    0.145E-02
RMM:   8    -0.117566170546E+04   -0.16768E-05   -0.12985E-05  1486   0.492E-03    0.767E-03
RMM:   9    -0.117566170536E+04    0.10373E-06   -0.36349E-06  1236   0.290E-03
  11 F= -.11828485E+04 E0= -.11828479E+04  d E =-.141032E-02  mag=    -0.9881
       N       E                     dE             d eps       ncg     rms          rms(c)
DAV:   1    -0.117566212740E+04   -0.42194E-03   -0.13867E-01  1536   0.664E-01    0.890E-02
RMM:   2    -0.117566232610E+04   -0.19870E-03   -0.30291E-03  1578   0.950E-02    0.737E-02
RMM:   3    -0.117566233900E+04   -0.12903E-04   -0.47027E-04  1646   0.371E-02    0.631E-02
RMM:   4    -0.117566234420E+04   -0.51957E-05   -0.11359E-04  1649   0.170E-02    0.477E-02
RMM:   5    -0.117566236892E+04   -0.24721E-04   -0.11222E-04  1538   0.149E-02    0.205E-02
RMM:   6    -0.117566237590E+04   -0.69810E-05   -0.27340E-05  1735   0.858E-03    0.140E-02
RMM:   7    -0.117566237401E+04    0.18888E-05   -0.76762E-06  1411   0.387E-03    0.764E-03
RMM:   8    -0.117566237468E+04   -0.66697E-06   -0.35629E-06  1274   0.258E-03
  12 F= -.11828495E+04 E0= -.11828489E+04  d E =-.928645E-03  mag=    -0.9879
       N       E                     dE             d eps       ncg     rms          rms(c)
DAV:   1    -0.117566223756E+04    0.13645E-03   -0.20122E-01  1536   0.800E-01    0.107E-01
RMM:   2    -0.117566252396E+04   -0.28640E-03   -0.43901E-03  1577   0.114E-01    0.885E-02
RMM:   3    -0.117566254408E+04   -0.20122E-04   -0.68068E-04  1646   0.446E-02    0.757E-02
RMM:   4    -0.117566255636E+04   -0.12281E-04   -0.16620E-04  1649   0.204E-02    0.567E-02
RMM:   5    -0.117566259493E+04   -0.38565E-04   -0.15337E-04  1538   0.176E-02    0.249E-02
RMM:   6    -0.117566260482E+04   -0.98967E-05   -0.38738E-05  1768   0.102E-02    0.171E-02
RMM:   7    -0.117566260181E+04    0.30099E-05   -0.11523E-05  1475   0.457E-03    0.922E-03
RMM:   8    -0.117566260284E+04   -0.10327E-05   -0.53964E-06  1387   0.313E-03    0.524E-03
RMM:   9    -0.117566260227E+04    0.57138E-06   -0.21113E-06  1064   0.212E-03
  13 F= -.11828500E+04 E0= -.11828494E+04  d E =-.146786E-02  mag=    -0.9877
       N       E                     dE             d eps       ncg     rms          rms(c)
DAV:   1    -0.117566251080E+04    0.92048E-04   -0.18516E-02  1664   0.243E-01    0.326E-02
RMM:   2    -0.117566253771E+04   -0.26910E-04   -0.40650E-04  1575   0.349E-02    0.272E-02
RMM:   3    -0.117566253891E+04   -0.11989E-05   -0.63175E-05  1646   0.136E-02    0.232E-02
RMM:   4    -0.117566253885E+04    0.58350E-07   -0.16317E-05  1615   0.635E-03    0.174E-02
RMM:   5    -0.117566254204E+04   -0.31903E-05   -0.16730E-05  1487   0.566E-03    0.790E-03
RMM:   6    -0.117566254285E+04   -0.81278E-06   -0.34854E-06  1160   0.322E-03
  14 F= -.11828500E+04 E0= -.11828494E+04  d E =-.150242E-02  mag=    -0.9876
       N       E                     dE             d eps       ncg     rms          rms(c)
DAV:   1    -0.117566273663E+04   -0.19459E-03   -0.18331E-01  1536   0.732E-01    0.103E-01
RMM:   2    -0.117566295564E+04   -0.21901E-03   -0.35384E-03  1570   0.101E-01    0.855E-02
RMM:   3    -0.117566297306E+04   -0.17426E-04   -0.56800E-04  1627   0.399E-02    0.704E-02
RMM:   4    -0.117566300044E+04   -0.27383E-04   -0.20229E-04  1601   0.215E-02    0.365E-02
RMM:   5    -0.117566302668E+04   -0.26232E-04   -0.73920E-05  1579   0.127E-02    0.195E-02
RMM:   6    -0.117566302810E+04   -0.14186E-05   -0.16430E-05  1540   0.680E-03    0.102E-02
RMM:   7    -0.117566302911E+04   -0.10120E-05   -0.48367E-06  1241   0.342E-03    0.715E-03
RMM:   8    -0.117566302852E+04    0.58411E-06   -0.19112E-06  1053   0.210E-03
  15 F= -.11828509E+04 E0= -.11828502E+04  d E =-.810256E-03  mag=    -0.9874
       N       E                     dE             d eps       ncg     rms          rms(c)
DAV:   1    -0.117566283219E+04    0.19692E-03   -0.12838E-01  1536   0.613E-01    0.854E-02
RMM:   2    -0.117566298940E+04   -0.15721E-03   -0.24878E-03  1569   0.844E-02    0.710E-02
RMM:   3    -0.117566300157E+04   -0.12173E-04   -0.39767E-04  1619   0.335E-02    0.585E-02
RMM:   4    -0.117566301964E+04   -0.18070E-04   -0.14625E-04  1603   0.183E-02    0.316E-02
RMM:   5    -0.117566303521E+04   -0.15577E-04   -0.47526E-05  1603   0.107E-02    0.185E-02
RMM:   6    -0.117566303862E+04   -0.34100E-05   -0.11194E-05  1547   0.529E-03    0.141E-02
RMM:   7    -0.117566303822E+04    0.40473E-06   -0.79491E-06  1378   0.366E-03
  16 F= -.11828511E+04 E0= -.11828505E+04  d E =-.108962E-02  mag=    -0.9872
       N       E                     dE             d eps       ncg     rms          rms(c)
DAV:   1    -0.117566333296E+04   -0.29434E-03   -0.13652E-01  1536   0.632E-01    0.909E-02
RMM:   2    -0.117566351430E+04   -0.18134E-03   -0.27580E-03  1570   0.881E-02    0.736E-02
RMM:   3    -0.117566353083E+04   -0.16529E-04   -0.42036E-04  1627   0.344E-02    0.617E-02
RMM:   4    -0.117566354455E+04   -0.13717E-04   -0.11877E-04  1633   0.170E-02    0.440E-02
RMM:   5    -0.117566356835E+04   -0.23799E-04   -0.84136E-05  1557   0.133E-02    0.200E-02
RMM:   6    -0.117566357356E+04   -0.52083E-05   -0.17977E-05  1697   0.695E-03    0.150E-02
RMM:   7    -0.117566357298E+04    0.57753E-06   -0.95196E-06  1441   0.409E-03
  17 F= -.11828519E+04 E0= -.11828512E+04  d E =-.735500E-03  mag=    -0.9869
       N       E                     dE             d eps       ncg     rms          rms(c)
DAV:   1    -0.117566352669E+04    0.46868E-04   -0.72320E-02  1536   0.460E-01    0.659E-02
RMM:   2    -0.117566362361E+04   -0.96918E-04   -0.14622E-03  1570   0.643E-02    0.536E-02
RMM:   3    -0.117566363342E+04   -0.98098E-05   -0.22284E-04  1628   0.252E-02    0.454E-02
RMM:   4    -0.117566364058E+04   -0.71628E-05   -0.58815E-05  1649   0.121E-02    0.338E-02
RMM:   5    -0.117566365451E+04   -0.13937E-04   -0.46696E-05  1540   0.977E-03    0.147E-02
RMM:   6    -0.117566365787E+04   -0.33576E-05   -0.10167E-05  1558   0.521E-03    0.106E-02
RMM:   7    -0.117566365750E+04    0.36852E-06   -0.45643E-06  1259   0.299E-03
  18 F= -.11828521E+04 E0= -.11828514E+04  d E =-.965699E-03  mag=    -0.9867
       N       E                     dE             d eps       ncg     rms          rms(c)
DAV:   1    -0.117566390628E+04   -0.24841E-03   -0.16932E-01  1536   0.691E-01    0.105E-01
RMM:   2    -0.117566413798E+04   -0.23170E-03   -0.35165E-03  1575   0.963E-02    0.858E-02
RMM:   3    -0.117566416014E+04   -0.22163E-04   -0.52952E-04  1637   0.372E-02    0.729E-02
RMM:   4    -0.117566417614E+04   -0.15999E-04   -0.11645E-04  1644   0.171E-02    0.542E-02
RMM:   5    -0.117566422412E+04   -0.47975E-04   -0.13829E-04  1544   0.162E-02    0.168E-02
RMM:   6    -0.117566422665E+04   -0.25286E-05   -0.19916E-05  1648   0.777E-03    0.144E-02
RMM:   7    -0.117566422304E+04    0.36081E-05   -0.10646E-05  1464   0.437E-03    0.690E-03
RMM:   8    -0.117566422371E+04   -0.66876E-06   -0.24362E-06  1086   0.246E-03
  19 F= -.11828529E+04 E0= -.11828522E+04  d E =-.760897E-03  mag=    -0.9865
       N       E                     dE             d eps       ncg     rms          rms(c)
DAV:   1    -0.117566401177E+04    0.21127E-03   -0.18776E-01  1536   0.728E-01    0.111E-01
RMM:   2    -0.117566427133E+04   -0.25956E-03   -0.39424E-03  1575   0.102E-01    0.902E-02
RMM:   3    -0.117566429669E+04   -0.25361E-04   -0.58981E-04  1639   0.392E-02    0.761E-02
RMM:   4    -0.117566431576E+04   -0.19064E-04   -0.13212E-04  1633   0.181E-02    0.551E-02
RMM:   5    -0.117566436870E+04   -0.52939E-04   -0.14988E-04  1545   0.169E-02    0.175E-02
RMM:   6    -0.117566437014E+04   -0.14474E-05   -0.20976E-05  1635   0.811E-03    0.152E-02
RMM:   7    -0.117566436603E+04    0.41152E-05   -0.12742E-05  1478   0.469E-03    0.720E-03
RMM:   8    -0.117566436683E+04   -0.80573E-06   -0.27138E-06  1109   0.260E-03
  20 F= -.11828532E+04 E0= -.11828525E+04  d E =-.110773E-02  mag=    -0.9863
