       N       E                     dE             d eps       ncg     rms          rms(c)
DAV:   1     0.506335976399E+04    0.50634E+04   -0.17339E+05  1800   0.926E+02
DAV:   2    -0.213079976086E+02   -0.50847E+04   -0.46602E+04  2592   0.214E+02
DAV:   3    -0.118315866885E+04   -0.11619E+04   -0.11566E+04  2016   0.112E+02
DAV:   4    -0.123294234792E+04   -0.49784E+02   -0.49542E+02  1944   0.312E+01
DAV:   5    -0.123432431396E+04   -0.13820E+01   -0.13783E+01  2304   0.500E+00    0.607E+01
RMM:   6    -0.122187389958E+04    0.12450E+02   -0.79316E+00  1584   0.365E+00    0.490E+01
RMM:   7    -0.118545460820E+04    0.36419E+02   -0.50902E+01  1584   0.847E+00    0.308E+01
RMM:   8    -0.117460151685E+04    0.10853E+02   -0.16747E+01  1584   0.478E+00    0.225E+01
RMM:   9    -0.117100656063E+04    0.35950E+01   -0.19540E+01  1584   0.517E+00    0.141E+01
RMM:  10    -0.117183078682E+04   -0.82423E+00   -0.46173E+00  1591   0.267E+00    0.819E+00
RMM:  11    -0.117147835532E+04    0.35243E+00   -0.23007E+00  1584   0.147E+00    0.761E+00
RMM:  12    -0.117090905132E+04    0.56930E+00   -0.88359E-01  1584   0.105E+00    0.129E+00
RMM:  13    -0.117094513439E+04   -0.36083E-01   -0.35410E-02  1611   0.254E-01    0.189E+00
RMM:  14    -0.117096863195E+04   -0.23498E-01   -0.33570E-02  1595   0.171E-01    0.358E+00
RMM:  15    -0.117094897855E+04    0.19653E-01   -0.56451E-02  1594   0.186E-01    0.216E+00
RMM:  16    -0.117094620893E+04    0.27696E-02   -0.49008E-03  1586   0.970E-02    0.176E+00
RMM:  17    -0.117093498043E+04    0.11229E-01   -0.36059E-03  1507   0.532E-02    0.173E-01
RMM:  18    -0.117093922024E+04   -0.42398E-02   -0.88379E-04  1279   0.404E-02    0.604E-01
RMM:  19    -0.117093840292E+04    0.81731E-03   -0.58372E-04  1139   0.269E-02    0.912E-02
RMM:  20    -0.117093876713E+04   -0.36420E-03   -0.12711E-04  1048   0.178E-02    0.134E-01
RMM:  21    -0.117093882028E+04   -0.53157E-04   -0.69321E-05  1024   0.128E-02
   1 F= -.11780788E+04 E0= -.11780766E+04  d E =-.117808E+04  mag=     0.9558
       N       E                     dE             d eps       ncg     rms          rms(c)
DAV:   1    -0.117094196234E+04   -0.31952E-02   -0.30598E-01  1656   0.780E-01    0.945E-01
RMM:   2    -0.117094410952E+04   -0.21472E-02   -0.16755E-02  1587   0.135E-01    0.165E+00
RMM:   3    -0.117093779772E+04    0.63118E-02   -0.22393E-03  1369   0.518E-02    0.192E-01
RMM:   4    -0.117093881326E+04   -0.10155E-02   -0.57444E-04  1246   0.322E-02    0.176E-01
RMM:   5    -0.117093828783E+04    0.52544E-03   -0.16864E-03  1584   0.448E-02    0.924E-02
RMM:   6    -0.117093825154E+04    0.36286E-04   -0.44614E-04  1232   0.241E-02
   2 F= -.11780782E+04 E0= -.11780758E+04  d E =0.603381E-03  mag=     0.9489
       N       E                     dE             d eps       ncg     rms          rms(c)
DAV:   1    -0.117094107057E+04   -0.27827E-02   -0.14112E-01  1692   0.519E-01    0.712E-01
RMM:   2    -0.117094261071E+04   -0.15401E-02   -0.76973E-03  1589   0.889E-02    0.114E+00
RMM:   3    -0.117093891470E+04    0.36960E-02   -0.11603E-03  1189   0.357E-02    0.212E-01
RMM:   4    -0.117093936584E+04   -0.45113E-03   -0.73015E-04  1243   0.278E-02    0.163E-01
RMM:   5    -0.117093918551E+04    0.18033E-03   -0.62366E-04  1521   0.292E-02    0.103E-01
RMM:   6    -0.117093917891E+04    0.65960E-05   -0.14427E-04  1040   0.133E-02
   3 F= -.11780792E+04 E0= -.11780765E+04  d E =-.345205E-03  mag=     0.9489
