       N       E                     dE             d eps       ncg     rms          rms(c)
DAV:   1     0.490518372244E+04    0.49052E+04   -0.17324E+05  1872   0.913E+02
DAV:   2    -0.485101680763E+02   -0.49537E+04   -0.45135E+04  2520   0.207E+02
DAV:   3    -0.119381369383E+04   -0.11453E+04   -0.11409E+04  2088   0.110E+02
DAV:   4    -0.124046411463E+04   -0.46650E+02   -0.46410E+02  1980   0.292E+01
DAV:   5    -0.124166987053E+04   -0.12058E+01   -0.12026E+01  2304   0.438E+00    0.907E+01
RMM:   6    -0.122821258547E+04    0.13457E+02   -0.79114E+00  1584   0.316E+00    0.795E+01
RMM:   7    -0.118152583802E+04    0.46687E+02   -0.96068E+01  1584   0.110E+01    0.487E+01
RMM:   8    -0.117962656367E+04    0.18993E+01   -0.14597E+01  1589   0.394E+00    0.430E+01
RMM:   9    -0.118512900323E+04   -0.55024E+01   -0.53477E+01  1584   0.806E+00    0.211E+01
RMM:  10    -0.117973989943E+04    0.53891E+01   -0.25717E+00  1587   0.185E+00    0.177E+01
RMM:  11    -0.117701301998E+04    0.27269E+01   -0.59390E+00  1584   0.176E+00    0.713E+00
RMM:  12    -0.117682920103E+04    0.18382E+00   -0.25298E-01  1586   0.504E-01    0.563E+00
RMM:  13    -0.117636776647E+04    0.46143E+00   -0.87231E-01  1584   0.101E+00    0.227E+00
RMM:  14    -0.117628852196E+04    0.79245E-01   -0.18040E-01  1587   0.455E-01    0.119E+00
RMM:  15    -0.117627785623E+04    0.10666E-01   -0.47662E-02  1592   0.221E-01    0.883E-01
RMM:  16    -0.117628108521E+04   -0.32290E-02   -0.12613E-02  1613   0.108E-01    0.668E-01
RMM:  17    -0.117627971743E+04    0.13678E-02   -0.80617E-03  1584   0.791E-02    0.531E-01
RMM:  18    -0.117627996418E+04   -0.24676E-03   -0.78523E-03  1586   0.809E-02    0.457E-01
RMM:  19    -0.117627950375E+04    0.46044E-03   -0.25152E-03  1582   0.460E-02    0.220E-01
RMM:  20    -0.117627958701E+04   -0.83268E-04   -0.61981E-04  1142   0.221E-02
   1 F= -.11836283E+04 E0= -.11836224E+04  d E =-.118363E+04  mag=    -0.8290
       N       E                     dE             d eps       ncg     rms          rms(c)
DAV:   1    -0.117627741179E+04    0.20920E-02   -0.54903E-01  1656   0.120E+00    0.579E-01
RMM:   2    -0.117627866890E+04   -0.12571E-02   -0.15870E-02  1584   0.171E-01    0.563E-01
RMM:   3    -0.117627854569E+04    0.12321E-03   -0.10233E-03  1473   0.388E-02    0.527E-01
RMM:   4    -0.117627816463E+04    0.38106E-03   -0.27176E-03  1583   0.570E-02    0.160E-01
RMM:   5    -0.117627822238E+04   -0.57745E-04   -0.21828E-04  1091   0.187E-02
   2 F= -.11836273E+04 E0= -.11836222E+04  d E =0.954736E-03  mag=    -0.8462
       N       E                     dE             d eps       ncg     rms          rms(c)
DAV:   1    -0.117628015207E+04   -0.19874E-02   -0.20131E-01  1836   0.724E-01    0.341E-01
RMM:   2    -0.117628042560E+04   -0.27353E-03   -0.43872E-03  1584   0.946E-02    0.308E-01
RMM:   3    -0.117628020823E+04    0.21737E-03   -0.46383E-04  1245   0.271E-02    0.217E-01
RMM:   4    -0.117628019649E+04    0.11738E-04   -0.11395E-03  1560   0.372E-02    0.824E-02
RMM:   5    -0.117628013527E+04    0.61221E-04   -0.62914E-05  1015   0.973E-03
   3 F= -.11836290E+04 E0= -.11836238E+04  d E =-.707866E-03  mag=    -0.8446
