       N       E                     dE             d eps       ncg     rms          rms(c)
DAV:   1     0.443244063343E+04    0.44324E+04   -0.17567E+05  1920   0.927E+02
DAV:   2    -0.113409388105E+03   -0.45459E+04   -0.41078E+04  2400   0.204E+02
DAV:   3    -0.118458845843E+04   -0.10712E+04   -0.10660E+04  1984   0.106E+02
DAV:   4    -0.122893974890E+04   -0.44351E+02   -0.44081E+02  1952   0.286E+01
DAV:   5    -0.123008016830E+04   -0.11404E+01   -0.11379E+01  2336   0.427E+00    0.669E+01
RMM:   6    -0.121330422989E+04    0.16776E+02   -0.91340E+00  1558   0.347E+00    0.532E+01
RMM:   7    -0.117881008191E+04    0.34494E+02   -0.11309E+02  1643   0.110E+01    0.313E+01
RMM:   8    -0.117079134975E+04    0.80187E+01   -0.98480E+00  1570   0.458E+00    0.269E+01
RMM:   9    -0.116318180182E+04    0.76095E+01   -0.16077E+01  1559   0.491E+00    0.188E+01
RMM:  10    -0.116337013189E+04   -0.18833E+00   -0.25444E+01  1590   0.628E+00    0.118E+01
RMM:  11    -0.116204708054E+04    0.13231E+01   -0.38864E+00  1593   0.265E+00    0.668E+00
RMM:  12    -0.116187849051E+04    0.16859E+00   -0.58285E-01  1633   0.108E+00    0.491E+00
RMM:  13    -0.116168865505E+04    0.18984E+00   -0.14978E+00  1552   0.137E+00    0.241E+00
RMM:  14    -0.116156833893E+04    0.12032E+00   -0.21822E-01  1560   0.623E-01    0.199E+00
RMM:  15    -0.116157531088E+04   -0.69719E-02   -0.53588E-02  1634   0.275E-01    0.318E+00
RMM:  16    -0.116158737148E+04   -0.12061E-01   -0.72008E-02  1579   0.273E-01    0.356E+00
RMM:  17    -0.116159810530E+04   -0.10734E-01   -0.18177E-02  1577   0.162E-01    0.384E+00
RMM:  18    -0.116159890370E+04   -0.79839E-03   -0.88237E-03  1772   0.762E-02    0.413E+00
RMM:  19    -0.116160746084E+04   -0.85571E-02   -0.85800E-03  1623   0.838E-02    0.381E+00
RMM:  20    -0.116160773413E+04   -0.27329E-03   -0.41932E-03  1786   0.360E-02    0.400E+00
RMM:  21    -0.116160793051E+04   -0.19638E-03   -0.25841E-03  2051   0.166E-02    0.417E+00
RMM:  22    -0.116160950607E+04   -0.15756E-02   -0.22821E-03  1616   0.420E-02    0.402E+00
RMM:  23    -0.116161356167E+04   -0.40556E-02   -0.54995E-03  1837   0.694E-02    0.411E+00
RMM:  24    -0.116161411174E+04   -0.55006E-03   -0.92430E-04  1635   0.254E-02    0.431E+00
RMM:  25    -0.116161489297E+04   -0.78123E-03   -0.80469E-04  1596   0.266E-02    0.454E+00
RMM:  26    -0.116161630618E+04   -0.14132E-02   -0.19910E-03  1738   0.396E-02    0.499E+00
RMM:  27    -0.116161648603E+04   -0.17985E-03   -0.67790E-04  1653   0.244E-02    0.519E+00
RMM:  28    -0.116161652994E+04   -0.43906E-04   -0.18467E-04  1742   0.130E-02    0.525E+00
RMM:  29    -0.116161650562E+04    0.24319E-04   -0.15958E-04  1632   0.111E-02    0.537E+00
RMM:  30    -0.116161653597E+04   -0.30355E-04   -0.30036E-04  1797   0.147E-02    0.552E+00
RMM:  31    -0.116161644065E+04    0.95322E-04   -0.66659E-05  1582   0.701E-03    0.545E+00
RMM:  32    -0.116161630806E+04    0.13259E-03   -0.84896E-05  1627   0.788E-03    0.540E+00
RMM:  33    -0.116161636568E+04   -0.57626E-04   -0.30573E-05  1324   0.344E-03    0.540E+00
RMM:  34    -0.116161654919E+04   -0.18351E-03   -0.49122E-05  1663   0.600E-03    0.547E+00
RMM:  35    -0.116161645105E+04    0.98138E-04   -0.27628E-05  1443   0.433E-03    0.534E+00
RMM:  36    -0.116161632235E+04    0.12871E-03   -0.35764E-05  1702   0.548E-03    0.520E+00
RMM:  37    -0.116161635851E+04   -0.36158E-04   -0.10679E-05  1110   0.221E-03    0.526E+00
RMM:  38    -0.116161645048E+04   -0.91979E-04   -0.30027E-05  1603   0.452E-03    0.549E+00
RMM:  39    -0.116161646594E+04   -0.15454E-04   -0.14431E-05  1108   0.207E-03    0.552E+00
RMM:  40    -0.116161645768E+04    0.82534E-05   -0.89515E-06  1129   0.207E-03    0.536E+00
RMM:  41    -0.116161637983E+04    0.77857E-04   -0.77318E-05  1862   0.753E-03    0.495E+00
RMM:  42    -0.116161634126E+04    0.38571E-04   -0.58498E-05  1849   0.637E-03    0.467E+00
RMM:  43    -0.116161632429E+04    0.16970E-04   -0.79950E-05  1918   0.720E-03    0.434E+00
RMM:  44    -0.116161632871E+04   -0.44187E-05   -0.22232E-04  2197   0.115E-02    0.377E+00
RMM:  45    -0.116161634768E+04   -0.18977E-04   -0.31075E-04  2209   0.127E-02    0.317E+00
RMM:  46    -0.116161635362E+04   -0.59375E-05   -0.38720E-04  2179   0.134E-02    0.261E+00
RMM:  47    -0.116161634780E+04    0.58182E-05   -0.46437E-04  2184   0.145E-02    0.213E+00
RMM:  48    -0.116161634174E+04    0.60593E-05   -0.35080E-04  2079   0.122E-02    0.187E+00
RMM:  49    -0.116161632833E+04    0.13409E-04   -0.22762E-04  1991   0.101E-02    0.183E+00
RMM:  50    -0.116161630329E+04    0.25045E-04   -0.13055E-04  1896   0.811E-03    0.195E+00
RMM:  51    -0.116161632896E+04   -0.25676E-04   -0.17165E-04  1907   0.923E-03    0.204E+00
RMM:  52    -0.116161640891E+04   -0.79947E-04   -0.59652E-05  1636   0.532E-03    0.214E+00
RMM:  53    -0.116161636439E+04    0.44525E-04   -0.16051E-05  1194   0.288E-03    0.209E+00
RMM:  54    -0.116161636693E+04   -0.25424E-05   -0.90723E-06  1046   0.829E-04    0.211E+00
RMM:  55    -0.116161626899E+04    0.97941E-04   -0.51856E-05  1699   0.595E-03    0.202E+00
RMM:  56    -0.116161617587E+04    0.93116E-04   -0.79748E-05  1766   0.706E-03    0.186E+00
RMM:  57    -0.116161615059E+04    0.25279E-04   -0.24892E-05  1785   0.509E-03    0.175E+00
RMM:  58    -0.116161605205E+04    0.98544E-04   -0.98749E-05  2103   0.917E-03    0.161E+00
RMM:  59    -0.116161591615E+04    0.13589E-03   -0.26093E-04  1919   0.117E-02    0.153E+00
RMM:  60    -0.116161584975E+04    0.66405E-04   -0.12596E-04  1597   0.748E-03    0.148E+00
RMM:  61    -0.116161582570E+04    0.24047E-04   -0.11310E-04  2297   0.106E-02    0.105E+00
RMM:  62    -0.116161581184E+04    0.13859E-04   -0.11731E-05  1235   0.267E-03    0.107E+00
RMM:  63    -0.116161580653E+04    0.53176E-05   -0.52317E-06  1110   0.170E-03    0.993E-01
RMM:  64    -0.116161579194E+04    0.14591E-04   -0.16856E-05  1222   0.298E-03    0.847E-01
RMM:  65    -0.116161574951E+04    0.42430E-04   -0.10231E-04  1484   0.697E-03    0.701E-01
RMM:  66    -0.116161570658E+04    0.42925E-04   -0.20782E-04  1651   0.978E-03    0.527E-01
RMM:  67    -0.116161569517E+04    0.11411E-04   -0.66526E-05  1383   0.510E-03    0.435E-01
RMM:  68    -0.116161569210E+04    0.30674E-05   -0.23809E-05  1261   0.329E-03    0.336E-01
RMM:  69    -0.116161569022E+04    0.18868E-05   -0.27512E-05  1284   0.364E-03    0.224E-01
RMM:  70    -0.116161569087E+04   -0.65236E-06   -0.76637E-06  1142   0.181E-03
   1 F= -.11616157E+04 E0= -.11616157E+04  d E =-.116162E+04  mag=    -0.0000
       N       E                     dE             d eps       ncg     rms          rms(c)
DAV:   1    -0.116155673221E+04    0.58958E-01   -0.14162E+01  1792   0.541E+00    0.202E+00
RMM:   2    -0.116159004818E+04   -0.33316E-01   -0.40058E-01  1643   0.853E-01    0.172E+00
RMM:   3    -0.116158560820E+04    0.44400E-02   -0.83966E-02  1604   0.367E-01    0.140E+00
RMM:   4    -0.116158636298E+04   -0.75479E-03   -0.22766E-02  1912   0.169E-01    0.132E+00
RMM:   5    -0.116158495534E+04    0.14076E-02   -0.97012E-03  1557   0.113E-01    0.604E-01
RMM:   6    -0.116158454119E+04    0.41414E-03   -0.99309E-03  1559   0.117E-01    0.219E-01
RMM:   7    -0.116158338070E+04    0.11605E-02   -0.33722E-03  1589   0.667E-02    0.121E-01
RMM:   8    -0.116158325710E+04    0.12360E-03   -0.97308E-04  1750   0.345E-02    0.890E-02
RMM:   9    -0.116158321495E+04    0.42148E-04   -0.26536E-04  1711   0.178E-02    0.680E-02
RMM:  10    -0.116158322758E+04   -0.12633E-04   -0.12157E-04  1572   0.130E-02    0.483E-02
RMM:  11    -0.116158326913E+04   -0.41549E-04   -0.14947E-04  1579   0.129E-02    0.343E-02
RMM:  12    -0.116158328707E+04   -0.17938E-04   -0.34566E-05  1593   0.652E-03    0.229E-02
RMM:  13    -0.116158331216E+04   -0.25085E-04   -0.20060E-05  1489   0.446E-03    0.223E-02
RMM:  14    -0.116158331810E+04   -0.59390E-05   -0.37191E-06  1111   0.212E-03    0.230E-02
RMM:  15    -0.116158331906E+04   -0.96871E-06   -0.69030E-07  1037   0.107E-03
   2 F= -.11615833E+04 E0= -.11615833E+04  d E =0.323718E-01  mag=     0.0000
       N       E                     dE             d eps       ncg     rms          rms(c)
DAV:   1    -0.116162762615E+04   -0.44308E-01   -0.53961E+00  1728   0.335E+00    0.127E+00
RMM:   2    -0.116163992665E+04   -0.12301E-01   -0.14940E-01  1655   0.528E-01    0.103E+00
RMM:   3    -0.116163802580E+04    0.19009E-02   -0.27641E-02  1632   0.222E-01    0.838E-01
RMM:   4    -0.116163761871E+04    0.40709E-03   -0.72228E-03  1812   0.999E-02    0.788E-01
RMM:   5    -0.116163723847E+04    0.38024E-03   -0.59627E-03  1552   0.867E-02    0.261E-01
RMM:   6    -0.116163721046E+04    0.28012E-04   -0.16004E-03  1568   0.505E-02    0.164E-01
RMM:   7    -0.116163663022E+04    0.58024E-03   -0.13209E-03  1621   0.368E-02    0.886E-02
RMM:   8    -0.116163665213E+04   -0.21906E-04   -0.30837E-04  1752   0.202E-02    0.697E-02
RMM:   9    -0.116163665386E+04   -0.17303E-05   -0.84236E-05  1685   0.103E-02    0.586E-02
RMM:  10    -0.116163670638E+04   -0.52526E-04   -0.52932E-05  1555   0.738E-03    0.470E-02
RMM:  11    -0.116163677534E+04   -0.68957E-04   -0.10171E-04  1583   0.944E-03    0.280E-02
RMM:  12    -0.116163683473E+04   -0.59393E-04   -0.67320E-05  1555   0.721E-03    0.222E-02
RMM:  13    -0.116163681759E+04    0.17138E-04   -0.84139E-06  1335   0.356E-03    0.222E-02
RMM:  14    -0.116163679308E+04    0.24509E-04   -0.54127E-06  1100   0.218E-03    0.230E-02
RMM:  15    -0.116163673392E+04    0.59167E-04   -0.37204E-05  1322   0.435E-03    0.219E-02
RMM:  16    -0.116163658101E+04    0.15290E-03   -0.36983E-04  1757   0.128E-02    0.204E-02
RMM:  17    -0.116163650386E+04    0.77156E-04   -0.26481E-04  1710   0.103E-02    0.185E-02
RMM:  18    -0.116163647427E+04    0.29592E-04   -0.18701E-04  1665   0.872E-03    0.129E-02
RMM:  19    -0.116163648109E+04   -0.68274E-05   -0.91385E-06  1240   0.265E-03    0.725E-03
RMM:  20    -0.116163647527E+04    0.58273E-05   -0.30205E-05  1304   0.405E-03    0.863E-03
RMM:  21    -0.116163647579E+04   -0.52169E-06   -0.12918E-05  1214   0.254E-03    0.751E-03
RMM:  22    -0.116163647651E+04   -0.71836E-06   -0.52573E-06  1101   0.176E-03
   3 F= -.11616365E+04 E0= -.11616365E+04  d E =-.207856E-01  mag=    -0.0000
       N       E                     dE             d eps       ncg     rms          rms(c)
DAV:   1    -0.116164343119E+04   -0.69554E-02   -0.31634E+00  1632   0.273E+00    0.737E-01
RMM:   2    -0.116164550470E+04   -0.20735E-02   -0.38203E-02  1540   0.324E-01    0.598E-01
RMM:   3    -0.116164317646E+04    0.23282E-02   -0.90368E-03  1571   0.143E-01    0.407E-01
RMM:   4    -0.116164295794E+04    0.21852E-03   -0.26590E-03  1646   0.714E-02    0.394E-01
RMM:   5    -0.116164298823E+04   -0.30294E-04   -0.13574E-03  1560   0.433E-02    0.251E-01
RMM:   6    -0.116164306155E+04   -0.73320E-04   -0.16724E-03  1559   0.505E-02    0.112E-01
RMM:   7    -0.116164257793E+04    0.48362E-03   -0.83694E-04  1602   0.315E-02    0.521E-02
RMM:   8    -0.116164256043E+04    0.17497E-04   -0.27891E-04  1642   0.184E-02    0.500E-02
RMM:   9    -0.116164257025E+04   -0.98152E-05   -0.58288E-05  1789   0.906E-03    0.376E-02
RMM:  10    -0.116164257301E+04   -0.27580E-05   -0.79813E-06  1432   0.366E-03    0.326E-02
RMM:  11    -0.116164258686E+04   -0.13849E-04   -0.25018E-05  1582   0.551E-03    0.209E-02
RMM:  12    -0.116164258841E+04   -0.15557E-05   -0.29571E-06  1113   0.228E-03    0.169E-02
RMM:  13    -0.116164259462E+04   -0.62124E-05   -0.54661E-06  1147   0.224E-03    0.145E-02
RMM:  14    -0.116164259989E+04   -0.52671E-05   -0.46329E-06  1139   0.207E-03    0.131E-02
RMM:  15    -0.116164260031E+04   -0.42117E-06   -0.13357E-05  1588   0.354E-03    0.812E-03
RMM:  16    -0.116164260151E+04   -0.11991E-05   -0.43741E-06  1245   0.238E-03    0.569E-03
RMM:  17    -0.116164260196E+04   -0.44527E-06   -0.20842E-06  1091   0.153E-03
   4 F= -.11616426E+04 E0= -.11616426E+04  d E =-.612545E-02  mag=     0.0000
       N       E                     dE             d eps       ncg     rms          rms(c)
DAV:   1    -0.116164515723E+04   -0.25557E-02   -0.39365E-01  1632   0.964E-01    0.267E-01
RMM:   2    -0.116164540918E+04   -0.25195E-03   -0.47674E-03  1540   0.115E-01    0.213E-01
RMM:   3    -0.116164513784E+04    0.27134E-03   -0.11019E-03  1575   0.502E-02    0.144E-01
RMM:   4    -0.116164511052E+04    0.27316E-04   -0.31980E-04  1647   0.249E-02    0.139E-01
RMM:   5    -0.116164509889E+04    0.11628E-04   -0.15723E-04  1552   0.155E-02    0.872E-02
RMM:   6    -0.116164511976E+04   -0.20861E-04   -0.22566E-04  1568   0.186E-02    0.384E-02
RMM:   7    -0.116164506661E+04    0.53144E-04   -0.10590E-04  1601   0.114E-02    0.214E-02
RMM:   8    -0.116164506637E+04    0.24420E-06   -0.22537E-05  1545   0.569E-03    0.161E-02
RMM:   9    -0.116164506804E+04   -0.16693E-05   -0.79460E-06  1443   0.319E-03    0.124E-02
RMM:  10    -0.116164506991E+04   -0.18775E-05   -0.25380E-06  1082   0.192E-03    0.957E-03
RMM:  11    -0.116164507287E+04   -0.29599E-05   -0.27696E-06  1087   0.170E-03    0.720E-03
RMM:  12    -0.116164507474E+04   -0.18614E-05   -0.14363E-06  1053   0.107E-03    0.642E-03
RMM:  13    -0.116164507609E+04   -0.13542E-05   -0.59492E-07   971   0.696E-04    0.614E-03
RMM:  14    -0.116164507653E+04   -0.43756E-06   -0.10503E-07   658   0.394E-04
   5 F= -.11616451E+04 E0= -.11616451E+04  d E =-.860002E-02  mag=     0.0000
       N       E                     dE             d eps       ncg     rms          rms(c)
DAV:   1    -0.116164328047E+04    0.17956E-02   -0.23896E+00  1536   0.257E+00    0.464E-01
RMM:   2    -0.116165088860E+04   -0.76081E-02   -0.10296E-01  1637   0.399E-01    0.374E-01
RMM:   3    -0.116165127525E+04   -0.38665E-03   -0.21812E-02  1635   0.161E-01    0.332E-01
RMM:   4    -0.116165074380E+04    0.53145E-03   -0.32937E-03  1771   0.736E-02    0.317E-01
RMM:   5    -0.116164998950E+04    0.75430E-03   -0.12087E-03  1541   0.471E-02    0.231E-01
RMM:   6    -0.116164991883E+04    0.70668E-04   -0.22412E-03  1554   0.599E-02    0.876E-02
RMM:   7    -0.116164993406E+04   -0.15228E-04   -0.22179E-04  1573   0.233E-02    0.392E-02
RMM:   8    -0.116164994163E+04   -0.75668E-05   -0.10246E-04  1626   0.124E-02    0.347E-02
RMM:   9    -0.116164994947E+04   -0.78445E-05   -0.24989E-05  1614   0.586E-03    0.328E-02
RMM:  10    -0.116164995452E+04   -0.50472E-05   -0.59040E-06  1238   0.288E-03    0.315E-02
RMM:  11    -0.116164999032E+04   -0.35796E-04   -0.36751E-05  1561   0.550E-03    0.284E-02
RMM:  12    -0.116164998570E+04    0.46105E-05   -0.29555E-06  1113   0.221E-03    0.282E-02
RMM:  13    -0.116164997211E+04    0.13599E-04   -0.35885E-06  1073   0.164E-03    0.281E-02
RMM:  14    -0.116165006860E+04   -0.96490E-04   -0.15525E-04  1552   0.848E-03    0.260E-02
RMM:  15    -0.116165009616E+04   -0.27565E-04   -0.17165E-05  1199   0.273E-03    0.245E-02
RMM:  16    -0.116165009774E+04   -0.15829E-05   -0.11077E-06  1040   0.106E-03    0.246E-02
RMM:  17    -0.116165010354E+04   -0.57936E-05   -0.81124E-07   982   0.833E-04    0.250E-02
RMM:  18    -0.116165013126E+04   -0.27726E-04   -0.91070E-06  1141   0.231E-03    0.234E-02
RMM:  19    -0.116165009586E+04    0.35406E-04   -0.19765E-05  1214   0.332E-03    0.217E-02
RMM:  20    -0.116164995700E+04    0.13886E-03   -0.54553E-04  1808   0.153E-02    0.158E-02
RMM:  21    -0.116164993136E+04    0.25641E-04   -0.15765E-04  1581   0.770E-03    0.138E-02
RMM:  22    -0.116164992848E+04    0.28736E-05   -0.30716E-05  1398   0.386E-03    0.951E-03
RMM:  23    -0.116164992819E+04    0.29393E-06   -0.28247E-05  1271   0.389E-03    0.741E-03
RMM:  24    -0.116164992955E+04   -0.13598E-05   -0.46840E-06  1118   0.191E-03    0.446E-03
RMM:  25    -0.116164992988E+04   -0.32561E-06   -0.12222E-05  1162   0.269E-03    0.441E-03
RMM:  26    -0.116164993004E+04   -0.16529E-06   -0.18834E-06  1032   0.142E-03
   6 F= -.11616499E+04 E0= -.11616499E+04  d E =-.485351E-02  mag=     0.0000
       N       E                     dE             d eps       ncg     rms          rms(c)
DAV:   1    -0.116165026432E+04   -0.33444E-03   -0.18958E-01  1664   0.724E-01    0.141E-01
RMM:   2    -0.116165086806E+04   -0.60374E-03   -0.82546E-03  1634   0.113E-01    0.114E-01
RMM:   3    -0.116165089421E+04   -0.26159E-04   -0.17725E-03  1632   0.457E-02    0.920E-02
RMM:   4    -0.116165079757E+04    0.96648E-04   -0.56427E-04  1588   0.300E-02    0.734E-02
RMM:   5    -0.116165080448E+04   -0.69161E-05   -0.92537E-05  1686   0.137E-02    0.707E-02
RMM:   6    -0.116165079572E+04    0.87644E-05   -0.19300E-05  1582   0.564E-03    0.546E-02
RMM:   7    -0.116165081116E+04   -0.15447E-04   -0.97613E-05  1640   0.106E-02    0.188E-02
RMM:   8    -0.116165080820E+04    0.29643E-05   -0.77751E-06  1523   0.423E-03    0.184E-02
RMM:   9    -0.116165080464E+04    0.35592E-05   -0.99451E-06  1520   0.342E-03    0.124E-02
RMM:  10    -0.116165080475E+04   -0.11233E-06   -0.27103E-06  1125   0.203E-03
   7 F= -.11616508E+04 E0= -.11616508E+04  d E =-.572823E-02  mag=     0.0000
       N       E                     dE             d eps       ncg     rms          rms(c)
DAV:   1    -0.116164478410E+04    0.60205E-02   -0.16138E+00  1536   0.215E+00    0.449E-01
RMM:   2    -0.116165147001E+04   -0.66859E-02   -0.82950E-02  1654   0.344E-01    0.347E-01
RMM:   3    -0.116165234881E+04   -0.87880E-03   -0.17955E-02  1636   0.140E-01    0.302E-01
RMM:   4    -0.116165213293E+04    0.21588E-03   -0.31061E-03  1712   0.685E-02    0.235E-01
RMM:   5    -0.116165207733E+04    0.55598E-04   -0.11274E-03  1574   0.450E-02    0.111E-01
RMM:   6    -0.116165205889E+04    0.18439E-04   -0.27736E-04  1640   0.243E-02    0.422E-02
RMM:   7    -0.116165205738E+04    0.15043E-05   -0.13011E-04  1626   0.137E-02    0.257E-02
RMM:   8    -0.116165205905E+04   -0.16693E-05   -0.27521E-05  1560   0.686E-03    0.171E-02
RMM:   9    -0.116165206020E+04   -0.11509E-05   -0.13285E-05  1545   0.449E-03    0.182E-02
RMM:  10    -0.116165206063E+04   -0.43022E-06   -0.22434E-06  1074   0.213E-03
   8 F= -.11616521E+04 E0= -.11616521E+04  d E =-.125588E-02  mag=     0.0000
       N       E                     dE             d eps       ncg     rms          rms(c)
DAV:   1    -0.116165241197E+04   -0.35176E-03   -0.28663E-01  1600   0.905E-01    0.205E-01
RMM:   2    -0.116165345923E+04   -0.10473E-02   -0.13162E-02  1656   0.144E-01    0.160E-01
RMM:   3    -0.116165354532E+04   -0.86085E-04   -0.28375E-03  1636   0.589E-02    0.108E-01
RMM:   4    -0.116165348815E+04    0.57166E-04   -0.57319E-04  1654   0.313E-02    0.575E-02
RMM:   5    -0.116165349413E+04   -0.59779E-05   -0.18078E-04  1639   0.181E-02    0.337E-02
RMM:   6    -0.116165347915E+04    0.14975E-04   -0.90326E-05  1596   0.108E-02    0.225E-02
RMM:   7    -0.116165348006E+04   -0.90335E-06   -0.14447E-05  1594   0.484E-03    0.218E-02
RMM:   8    -0.116165347810E+04    0.19540E-05   -0.38649E-06  1213   0.237E-03    0.175E-02
RMM:   9    -0.116165347817E+04   -0.62304E-07   -0.52946E-06  1380   0.263E-03
   9 F= -.11616535E+04 E0= -.11616535E+04  d E =-.267341E-02  mag=     0.0000
       N       E                     dE             d eps       ncg     rms          rms(c)
DAV:   1    -0.116165430939E+04   -0.83128E-03   -0.50337E-01  1536   0.119E+00    0.182E-01
RMM:   2    -0.116165498993E+04   -0.68054E-03   -0.85882E-03  1598   0.155E-01    0.163E-01
RMM:   3    -0.116165499892E+04   -0.89920E-05   -0.18488E-03  1612   0.650E-02    0.130E-01
RMM:   4    -0.116165496580E+04    0.33120E-04   -0.11783E-03  1598   0.447E-02    0.452E-02
RMM:   5    -0.116165494716E+04    0.18637E-04   -0.14226E-04  1696   0.188E-02    0.339E-02
RMM:   6    -0.116165493538E+04    0.11776E-04   -0.70194E-05  1564   0.980E-03    0.224E-02
RMM:   7    -0.116165493943E+04   -0.40413E-05   -0.16868E-05  1553   0.583E-03    0.118E-02
RMM:   8    -0.116165494064E+04   -0.12147E-05   -0.86819E-06  1560   0.363E-03    0.102E-02
RMM:   9    -0.116165494117E+04   -0.53390E-06   -0.25217E-06  1096   0.207E-03
  10 F= -.11616549E+04 E0= -.11616549E+04  d E =-.146301E-02  mag=     0.0000
       N       E                     dE             d eps       ncg     rms          rms(c)
DAV:   1    -0.116165498076E+04   -0.40123E-04   -0.11938E-02  1664   0.183E-01    0.261E-02
RMM:   2    -0.116165499541E+04   -0.14648E-04   -0.20533E-04  1598   0.238E-02    0.225E-02
RMM:   3    -0.116165499461E+04    0.80461E-06   -0.46767E-05  1610   0.101E-02    0.179E-02
RMM:   4    -0.116165499240E+04    0.22091E-05   -0.19845E-05  1596   0.585E-03    0.126E-02
RMM:   5    -0.116165499336E+04   -0.96409E-06   -0.40103E-06  1204   0.285E-03
  11 F= -.11616550E+04 E0= -.11616550E+04  d E =-.151520E-02  mag=     0.0000
       N       E                     dE             d eps       ncg     rms          rms(c)
DAV:   1    -0.116165593218E+04   -0.93978E-03   -0.40315E-01  1536   0.105E+00    0.134E-01
RMM:   2    -0.116165641467E+04   -0.48250E-03   -0.62408E-03  1576   0.135E-01    0.123E-01
RMM:   3    -0.116165642499E+04   -0.10319E-04   -0.13203E-03  1614   0.570E-02    0.108E-01
RMM:   4    -0.116165634026E+04    0.84731E-04   -0.94414E-04  1572   0.410E-02    0.375E-02
RMM:   5    -0.116165634169E+04   -0.14294E-05   -0.14344E-04  1678   0.184E-02    0.297E-02
RMM:   6    -0.116165633389E+04    0.77988E-05   -0.41476E-05  1562   0.813E-03    0.239E-02
RMM:   7    -0.116165633939E+04   -0.54953E-05   -0.21419E-05  1595   0.536E-03    0.220E-02
RMM:   8    -0.116165634104E+04   -0.16536E-05   -0.55597E-06  1344   0.285E-03    0.209E-02
RMM:   9    -0.116165635489E+04   -0.13849E-04   -0.21120E-05  1434   0.402E-03    0.140E-02
RMM:  10    -0.116165636441E+04   -0.95236E-05   -0.72223E-06  1152   0.248E-03    0.129E-02
RMM:  11    -0.116165636322E+04    0.11912E-05   -0.73371E-07  1030   0.109E-03    0.128E-02
RMM:  12    -0.116165635687E+04    0.63523E-05   -0.17355E-06  1048   0.113E-03    0.133E-02
RMM:  13    -0.116165636795E+04   -0.11081E-04   -0.52352E-06  1088   0.174E-03    0.128E-02
RMM:  14    -0.116165633675E+04    0.31202E-04   -0.51646E-05  1334   0.503E-03    0.134E-02
RMM:  15    -0.116165632916E+04    0.75906E-05   -0.92814E-06  1123   0.202E-03    0.135E-02
RMM:  16    -0.116165631334E+04    0.15820E-04   -0.56720E-05  1488   0.541E-03    0.976E-03
RMM:  17    -0.116165630933E+04    0.40063E-05   -0.35814E-05  1283   0.407E-03    0.540E-03
RMM:  18    -0.116165631018E+04   -0.84868E-06   -0.32722E-06  1049   0.135E-03
  12 F= -.11616563E+04 E0= -.11616563E+04  d E =-.131682E-02  mag=     0.0000
