       N       E                     dE             d eps       ncg     rms          rms(c)
DAV:   1     0.499198887546E+04    0.49920E+04   -0.16962E+05  1800   0.908E+02
DAV:   2    -0.214884956771E+02   -0.50135E+04   -0.45690E+04  2556   0.210E+02
DAV:   3    -0.117210673526E+04   -0.11506E+04   -0.11456E+04  2160   0.112E+02
DAV:   4    -0.121880447012E+04   -0.46698E+02   -0.46508E+02  2016   0.296E+01
DAV:   5    -0.122000094011E+04   -0.11965E+01   -0.11940E+01  2340   0.443E+00    0.601E+01
RMM:   6    -0.120857460801E+04    0.11426E+02   -0.64300E+00  1584   0.300E+00    0.497E+01
RMM:   7    -0.116672674720E+04    0.41848E+02   -0.65212E+01  1584   0.939E+00    0.290E+01
RMM:   8    -0.116025143921E+04    0.64753E+01   -0.16852E+01  1584   0.481E+00    0.183E+01
RMM:   9    -0.115978317645E+04    0.46826E+00   -0.22913E+01  1584   0.545E+00    0.943E+00
RMM:  10    -0.115876465163E+04    0.10185E+01   -0.19531E+00  1589   0.179E+00    0.330E+00
RMM:  11    -0.115863691853E+04    0.12773E+00   -0.53479E-01  1584   0.844E-01    0.199E+00
RMM:  12    -0.115859227680E+04    0.44642E-01   -0.24330E-01  1584   0.618E-01    0.488E-01
RMM:  13    -0.115858953164E+04    0.27452E-02   -0.42364E-02  1584   0.262E-01    0.346E-01
RMM:  14    -0.115858604057E+04    0.34911E-02   -0.10084E-02  1588   0.118E-01    0.179E-01
RMM:  15    -0.115858626913E+04   -0.22857E-03   -0.94359E-04  1590   0.464E-02    0.166E-01
RMM:  16    -0.115858558534E+04    0.68380E-03   -0.56967E-03  1584   0.861E-02    0.922E-02
RMM:  17    -0.115858578911E+04   -0.20377E-03   -0.86072E-04  1585   0.355E-02    0.523E-02
RMM:  18    -0.115858570146E+04    0.87649E-04   -0.61579E-05  1030   0.128E-02
   1 F= -.11655417E+04 E0= -.11655417E+04  d E =-.116554E+04  mag=     0.0007
       N       E                     dE             d eps       ncg     rms          rms(c)
DAV:   1    -0.115858559871E+04    0.19040E-03   -0.25299E-01  1764   0.806E-01    0.163E-01
RMM:   2    -0.115858606137E+04   -0.46266E-03   -0.75883E-03  1588   0.124E-01    0.164E-01
RMM:   3    -0.115858597283E+04    0.88541E-04   -0.45257E-04  1286   0.325E-02
   2 F= -.11655422E+04 E0= -.11655422E+04  d E =-.524270E-03  mag=    -0.0001
       N       E                     dE             d eps       ncg     rms          rms(c)
DAV:   1    -0.115858562301E+04    0.43836E-03   -0.14441E-02  1800   0.189E-01    0.514E-02
RMM:   2    -0.115858570129E+04   -0.78287E-04   -0.74514E-04  1524   0.415E-02
   3 F= -.11655419E+04 E0= -.11655419E+04  d E =-.203722E-03  mag=    -0.0000
