       N       E                     dE             d eps       ncg     rms          rms(c)
DAV:   1     0.493144841073E+04    0.49314E+04   -0.17314E+05  1872   0.919E+02
DAV:   2    -0.348802526353E+02   -0.49663E+04   -0.45380E+04  2520   0.208E+02
DAV:   3    -0.118923462287E+04   -0.11544E+04   -0.11465E+04  2160   0.111E+02
DAV:   4    -0.123495789239E+04   -0.45723E+02   -0.45487E+02  2016   0.289E+01
DAV:   5    -0.123610137369E+04   -0.11435E+01   -0.11409E+01  2340   0.422E+00    0.675E+01
RMM:   6    -0.122235984901E+04    0.13742E+02   -0.41974E+01  1585   0.600E+00    0.561E+01
RMM:   7    -0.120918361579E+04    0.13176E+02   -0.49889E+00  1584   0.267E+00    0.472E+01
RMM:   8    -0.117514670874E+04    0.34037E+02   -0.56201E+01  1584   0.846E+00    0.257E+01
RMM:   9    -0.116937434016E+04    0.57724E+01   -0.89634E+00  1584   0.351E+00    0.201E+01
RMM:  10    -0.116743878097E+04    0.19356E+01   -0.11367E+01  1584   0.386E+00    0.109E+01
RMM:  11    -0.116815324037E+04   -0.71446E+00   -0.32841E+00  1588   0.215E+00    0.677E+00
RMM:  12    -0.116756541867E+04    0.58782E+00   -0.15200E+00  1584   0.133E+00    0.222E+00
RMM:  13    -0.116743658230E+04    0.12884E+00   -0.25115E-01  1584   0.531E-01    0.117E+00
RMM:  14    -0.116742530861E+04    0.11274E-01   -0.26658E-02  1585   0.189E-01    0.763E-01
RMM:  15    -0.116741993173E+04    0.53769E-02   -0.23705E-02  1586   0.160E-01    0.259E-01
RMM:  16    -0.116741968924E+04    0.24249E-03   -0.36199E-03  1589   0.703E-02    0.172E-01
RMM:  17    -0.116741956101E+04    0.12823E-03   -0.11617E-03  1489   0.364E-02    0.104E-01
RMM:  18    -0.116741966453E+04   -0.10352E-03   -0.62220E-04  1243   0.274E-02    0.600E-02
RMM:  19    -0.116741968724E+04   -0.22703E-04   -0.14180E-04  1040   0.151E-02
   1 F= -.11747491E+04 E0= -.11747491E+04  d E =-.117475E+04  mag=     0.0022
       N       E                     dE             d eps       ncg     rms          rms(c)
DAV:   1    -0.116741653048E+04    0.31341E-02   -0.14634E+00  1656   0.169E+00    0.506E-01
RMM:   2    -0.116741988513E+04   -0.33546E-02   -0.42898E-02  1584   0.245E-01    0.444E-01
RMM:   3    -0.116741956409E+04    0.32103E-03   -0.20685E-03  1571   0.499E-02    0.402E-01
RMM:   4    -0.116741906741E+04    0.49669E-03   -0.49517E-03  1584   0.762E-02    0.136E-01
RMM:   5    -0.116741908777E+04   -0.20359E-04   -0.30799E-04  1145   0.216E-02
   2 F= -.11747495E+04 E0= -.11747495E+04  d E =-.395269E-03  mag=     0.0003
       N       E                     dE             d eps       ncg     rms          rms(c)
DAV:   1    -0.116742100644E+04   -0.19390E-02   -0.30370E-01  1620   0.763E-01    0.216E-01
RMM:   2    -0.116742141408E+04   -0.40763E-03   -0.62840E-03  1584   0.980E-02    0.190E-01
RMM:   3    -0.116742129252E+04    0.12156E-03   -0.29405E-04  1114   0.198E-02    0.169E-01
RMM:   4    -0.116742112409E+04    0.16843E-03   -0.12866E-03  1564   0.390E-02    0.537E-02
RMM:   5    -0.116742112952E+04   -0.54265E-05   -0.75275E-05  1019   0.112E-02
   3 F= -.11747511E+04 E0= -.11747511E+04  d E =-.197947E-02  mag=     0.0000
       N       E                     dE             d eps       ncg     rms          rms(c)
DAV:   1    -0.116742130692E+04   -0.18283E-03   -0.82350E-01  1656   0.126E+00    0.380E-01
RMM:   2    -0.116742276077E+04   -0.14538E-02   -0.19372E-02  1584   0.159E-01    0.324E-01
RMM:   3    -0.116742243464E+04    0.32613E-03   -0.91003E-04  1290   0.342E-02    0.270E-01
RMM:   4    -0.116742217035E+04    0.26429E-03   -0.24438E-03  1580   0.515E-02    0.106E-01
RMM:   5    -0.116742215291E+04    0.17436E-04   -0.12950E-04  1058   0.140E-02
   4 F= -.11747520E+04 E0= -.11747520E+04  d E =-.985180E-03  mag=     0.0000
       N       E                     dE             d eps       ncg     rms          rms(c)
DAV:   1    -0.116742243279E+04   -0.26244E-03   -0.10017E-01  1728   0.435E-01    0.134E-01
RMM:   2    -0.116742254117E+04   -0.10838E-03   -0.18941E-03  1471   0.532E-02    0.112E-01
RMM:   3    -0.116742247257E+04    0.68596E-04   -0.10666E-04  1005   0.132E-02
   5 F= -.11747524E+04 E0= -.11747524E+04  d E =-.131690E-02  mag=    -0.0000
       N       E                     dE             d eps       ncg     rms          rms(c)
DAV:   1    -0.116742359258E+04   -0.10514E-02   -0.43680E-01  1728   0.892E-01    0.194E-01
RMM:   2    -0.116742426723E+04   -0.67465E-03   -0.84107E-03  1584   0.126E-01    0.155E-01
RMM:   3    -0.116742414779E+04    0.11944E-03   -0.41724E-04  1184   0.258E-02    0.129E-01
RMM:   4    -0.116742405023E+04    0.97560E-04   -0.69862E-04  1410   0.287E-02
   6 F= -.11747532E+04 E0= -.11747532E+04  d E =-.811319E-03  mag=     0.0000
       N       E                     dE             d eps       ncg     rms          rms(c)
DAV:   1    -0.116742400839E+04    0.13941E-03   -0.32815E-03  1728   0.777E-02    0.371E-02
RMM:   2    -0.116742400347E+04    0.49143E-05   -0.72016E-05   998   0.122E-02
   7 F= -.11747532E+04 E0= -.11747532E+04  d E =-.826955E-03  mag=    -0.0000
