       N       E                     dE             d eps       ncg     rms          rms(c)
DAV:   1     0.483994745476E+04    0.48399E+04   -0.17698E+05  1856   0.947E+02
DAV:   2    -0.474859801864E+02   -0.48874E+04   -0.44737E+04  2432   0.214E+02
DAV:   3    -0.119934792868E+04   -0.11519E+04   -0.11451E+04  1984   0.113E+02
DAV:   4    -0.124833819825E+04   -0.48990E+02   -0.48726E+02  1920   0.307E+01
DAV:   5    -0.124958751742E+04   -0.12493E+01   -0.12463E+01  2240   0.459E+00    0.806E+01
RMM:   6    -0.124007905964E+04    0.95085E+01   -0.91681E+01  1786   0.112E+01    0.740E+01
RMM:   7    -0.121758100553E+04    0.22498E+02   -0.10074E+01  1604   0.441E+00    0.459E+01
RMM:   8    -0.120291580637E+04    0.14665E+02   -0.12016E+01  1550   0.435E+00    0.369E+01
RMM:   9    -0.118092535291E+04    0.21990E+02   -0.34687E+01  1736   0.746E+00    0.266E+01
RMM:  10    -0.117581031946E+04    0.51150E+01   -0.87076E+00  1579   0.427E+00    0.189E+01
RMM:  11    -0.117518313332E+04    0.62719E+00   -0.12108E+01  1587   0.446E+00    0.105E+01
RMM:  12    -0.117590933044E+04   -0.72620E+00   -0.26154E+00  1583   0.239E+00    0.715E+00
RMM:  13    -0.117538801231E+04    0.52132E+00   -0.48157E-01  1593   0.104E+00    0.445E+00
RMM:  14    -0.117512965461E+04    0.25836E+00   -0.76218E-01  1547   0.110E+00    0.239E+00
RMM:  15    -0.117511781725E+04    0.11837E-01   -0.18173E-01  1602   0.649E-01    0.120E+00
RMM:  16    -0.117511704164E+04    0.77561E-03   -0.39353E-02  1626   0.299E-01    0.787E-01
RMM:  17    -0.117511815078E+04   -0.11091E-02   -0.19358E-02  1595   0.203E-01    0.706E-01
RMM:  18    -0.117511670656E+04    0.14442E-02   -0.10185E-02  1620   0.144E-01    0.365E-01
RMM:  19    -0.117511698298E+04   -0.27642E-03   -0.19369E-03  1758   0.695E-02    0.283E-01
RMM:  20    -0.117511701712E+04   -0.34141E-04   -0.78718E-04  1624   0.381E-02    0.192E-01
RMM:  21    -0.117511716353E+04   -0.14641E-03   -0.36352E-04  1613   0.275E-02    0.103E-01
RMM:  22    -0.117511714057E+04    0.22965E-04   -0.14326E-04  1582   0.164E-02    0.596E-02
RMM:  23    -0.117511715839E+04   -0.17821E-04   -0.14236E-04  1569   0.159E-02    0.263E-02
RMM:  24    -0.117511713836E+04    0.20032E-04   -0.40570E-05  1542   0.863E-03    0.171E-02
RMM:  25    -0.117511713390E+04    0.44534E-05   -0.22233E-05  1615   0.559E-03    0.133E-02
RMM:  26    -0.117511713380E+04    0.10640E-06   -0.33487E-06  1161   0.241E-03
   1 F= -.11822091E+04 E0= -.11822090E+04  d E =-.118221E+04  mag=     3.9987
       N       E                     dE             d eps       ncg     rms          rms(c)
DAV:   1    -0.117511538537E+04    0.17485E-02   -0.30671E-01  1760   0.112E+00    0.165E-01
RMM:   2    -0.117511657084E+04   -0.11855E-02   -0.13552E-02  1745   0.182E-01    0.143E-01
RMM:   3    -0.117511668277E+04   -0.11193E-03   -0.26687E-03  1913   0.763E-02    0.121E-01
RMM:   4    -0.117511651828E+04    0.16449E-03   -0.58390E-04  1758   0.338E-02    0.894E-02
RMM:   5    -0.117511641743E+04    0.10086E-03   -0.35962E-04  1596   0.245E-02    0.549E-02
RMM:   6    -0.117511640726E+04    0.10170E-04   -0.18026E-04  1622   0.181E-02    0.350E-02
RMM:   7    -0.117511640331E+04    0.39487E-05   -0.48804E-05  1610   0.107E-02    0.177E-02
RMM:   8    -0.117511640412E+04   -0.80976E-06   -0.23340E-05  1614   0.659E-03    0.104E-02
RMM:   9    -0.117511640230E+04    0.18132E-05   -0.97244E-06  1574   0.407E-03    0.707E-03
RMM:  10    -0.117511640253E+04   -0.22625E-06   -0.46452E-06  1460   0.286E-03
   2 F= -.11822089E+04 E0= -.11822088E+04  d E =0.149068E-03  mag=     3.9986
       N       E                     dE             d eps       ncg     rms          rms(c)
DAV:   1    -0.117511730021E+04   -0.89790E-03   -0.85983E-02  1856   0.587E-01    0.885E-02
RMM:   2    -0.117511755956E+04   -0.25935E-03   -0.31956E-03  1738   0.923E-02    0.755E-02
RMM:   3    -0.117511755510E+04    0.44591E-05   -0.47870E-04  1759   0.363E-02    0.619E-02
RMM:   4    -0.117511750162E+04    0.53477E-04   -0.15830E-04  1715   0.182E-02    0.437E-02
RMM:   5    -0.117511747923E+04    0.22391E-04   -0.97389E-05  1668   0.128E-02    0.276E-02
RMM:   6    -0.117511747552E+04    0.37072E-05   -0.37160E-05  1646   0.840E-03    0.168E-02
RMM:   7    -0.117511747520E+04    0.32227E-06   -0.14234E-05  1576   0.553E-03    0.897E-03
RMM:   8    -0.117511747421E+04    0.98697E-06   -0.55274E-06  1520   0.326E-03
   3 F= -.11822097E+04 E0= -.11822096E+04  d E =-.614884E-03  mag=     3.9987
