       N       E                     dE             d eps       ncg     rms          rms(c)
DAV:   1     0.506687712152E+04    0.50669E+04   -0.17048E+05  1872   0.910E+02
DAV:   2     0.602628906996E+02   -0.50066E+04   -0.45586E+04  2592   0.211E+02
DAV:   3    -0.117299275316E+04   -0.12333E+04   -0.12252E+04  2232   0.116E+02
DAV:   4    -0.123701349729E+04   -0.64021E+02   -0.63653E+02  2268   0.347E+01
DAV:   5    -0.123935435928E+04   -0.23409E+01   -0.23347E+01  2268   0.626E+00    0.715E+01
RMM:   6    -0.122037490910E+04    0.18979E+02   -0.10648E+01  2134   0.568E+00    0.549E+01
RMM:   7    -0.119322564834E+04    0.27149E+02   -0.32656E+01  2096   0.758E+00    0.386E+01
RMM:   8    -0.117405117999E+04    0.19174E+02   -0.27996E+01  2051   0.831E+00    0.293E+01
RMM:   9    -0.117067710266E+04    0.33741E+01   -0.11391E+01  2062   0.840E+00    0.184E+01
RMM:  10    -0.117141588089E+04   -0.73878E+00   -0.10463E+01  2102   0.428E+00    0.107E+01
RMM:  11    -0.117209849770E+04   -0.68262E+00   -0.16443E+00  2104   0.236E+00    0.801E+00
RMM:  12    -0.117112896469E+04    0.96953E+00   -0.14664E+00  2084   0.172E+00    0.390E+00
RMM:  13    -0.117101941507E+04    0.10955E+00   -0.64347E-01  2091   0.130E+00    0.255E+00
RMM:  14    -0.117100703387E+04    0.12381E-01   -0.71080E-02  2065   0.620E-01    0.987E-01
RMM:  15    -0.117100625869E+04    0.77518E-03   -0.54287E-02  2099   0.289E-01    0.582E-01
RMM:  16    -0.117100372453E+04    0.25342E-02   -0.79643E-03  2043   0.208E-01    0.271E-01
RMM:  17    -0.117100373528E+04   -0.10748E-04   -0.15797E-03  1397   0.914E-02    0.222E-01
RMM:  18    -0.117100372784E+04    0.74379E-05   -0.27551E-04  1142   0.111E-01
   1 F= -.11782729E+04 E0= -.11782729E+04  d E =-.117827E+04  mag=     1.0092
       N       E                     dE             d eps       ncg     rms          rms(c)
DAV:   1    -0.117100026267E+04    0.34726E-02   -0.68600E-01  1800   0.145E+00    0.510E-01
RMM:   2    -0.117100198771E+04   -0.17250E-02   -0.21719E-02  2153   0.231E-01    0.514E-01
RMM:   3    -0.117100203299E+04   -0.45287E-04   -0.40300E-03  1238   0.381E-01    0.482E-01
RMM:   4    -0.117100144060E+04    0.59239E-03   -0.53191E-04  1278   0.130E-01    0.361E-01
RMM:   5    -0.117100109927E+04    0.34133E-03   -0.41066E-03  1930   0.178E-01    0.174E-01
RMM:   6    -0.117100124216E+04   -0.14289E-03   -0.98509E-04  1452   0.109E-01    0.920E-02
RMM:   7    -0.117100115324E+04    0.88919E-04   -0.30681E-04  1226   0.125E-01
   2 F= -.11782710E+04 E0= -.11782710E+04  d E =0.188369E-02  mag=     1.0008
       N       E                     dE             d eps       ncg     rms          rms(c)
DAV:   1    -0.117100467311E+04   -0.34309E-02   -0.28397E-01  2052   0.945E-01    0.316E-01
RMM:   2    -0.117100494725E+04   -0.27415E-03   -0.60548E-03  2046   0.139E-01    0.355E-01
RMM:   3    -0.117100519697E+04   -0.24971E-03   -0.26071E-03  1252   0.420E-01    0.319E-01
RMM:   4    -0.117100511168E+04    0.85287E-04   -0.83568E-05  1130   0.944E-02
   3 F= -.11782745E+04 E0= -.11782745E+04  d E =-.163142E-02  mag=     1.0001
       N       E                     dE             d eps       ncg     rms          rms(c)
DAV:   1    -0.117100669105E+04   -0.14941E-02   -0.38873E-01  2124   0.111E+00    0.438E-01
RMM:   2    -0.117100576243E+04    0.92861E-03   -0.87019E-03  2048   0.164E-01    0.493E-01
RMM:   3    -0.117100675194E+04   -0.98951E-03   -0.30506E-03  1255   0.433E-01    0.431E-01
RMM:   4    -0.117100570993E+04    0.10420E-02   -0.68175E-05  1129   0.112E-01    0.382E-01
RMM:   5    -0.117100302089E+04    0.26890E-02   -0.14332E-03  1560   0.150E-01    0.381E-01
RMM:   6    -0.117100155030E+04    0.14706E-02   -0.75856E-03  2022   0.192E-01    0.438E-01
RMM:   7    -0.117100165096E+04   -0.10066E-03   -0.37833E-04  1138   0.926E-02    0.508E-01
RMM:   8    -0.117100167390E+04   -0.22938E-04   -0.19279E-04  1114   0.847E-02
   4 F= -.11782705E+04 E0= -.11782705E+04  d E =0.405520E-02  mag=     1.0000
       N       E                     dE             d eps       ncg     rms          rms(c)
DAV:   1    -0.117100468368E+04   -0.30327E-02   -0.14527E-01  2088   0.682E-01    0.567E-01
RMM:   2    -0.117100476126E+04   -0.77576E-04   -0.28341E-03  1984   0.101E-01    0.511E-01
RMM:   3    -0.117100464484E+04    0.11642E-03   -0.15650E-03  1267   0.355E-01    0.339E-01
RMM:   4    -0.117100434049E+04    0.30435E-03   -0.31260E-04  1164   0.938E-02    0.234E-01
RMM:   5    -0.117100428036E+04    0.60134E-04   -0.20851E-04  1108   0.149E-01
   5 F= -.11782734E+04 E0= -.11782734E+04  d E =0.107989E-02  mag=     1.0000
       N       E                     dE             d eps       ncg     rms          rms(c)
DAV:   1    -0.117100465863E+04   -0.31814E-03   -0.13319E-02  2124   0.305E-01    0.840E-02
RMM:   2    -0.117100465686E+04    0.17783E-05   -0.40942E-04  1480   0.353E-02
   6 F= -.11782739E+04 E0= -.11782739E+04  d E =0.573587E-03  mag=     1.0000
