       N       E                     dE             d eps       ncg     rms          rms(c)
DAV:   1     0.510663511192E+04    0.51066E+04   -0.17429E+05  1800   0.929E+02
DAV:   2    -0.225200550215E+02   -0.51292E+04   -0.47162E+04  2628   0.213E+02
DAV:   3    -0.119076061001E+04   -0.11682E+04   -0.11632E+04  2052   0.112E+02
DAV:   4    -0.123899100925E+04   -0.48230E+02   -0.47950E+02  2088   0.302E+01
DAV:   5    -0.124020935993E+04   -0.12184E+01   -0.12144E+01  2304   0.435E+00    0.658E+01
RMM:   6    -0.122224811850E+04    0.17961E+02   -0.22896E+01  1584   0.473E+00    0.525E+01
RMM:   7    -0.120463631035E+04    0.17612E+02   -0.12789E+01  1584   0.415E+00    0.409E+01
RMM:   8    -0.118334348925E+04    0.21293E+02   -0.23765E+01  1584   0.567E+00    0.287E+01
RMM:   9    -0.117307191250E+04    0.10272E+02   -0.18601E+01  1584   0.500E+00    0.201E+01
RMM:  10    -0.117535549316E+04   -0.22836E+01   -0.18223E+01  1584   0.490E+00    0.206E+01
RMM:  11    -0.117453579924E+04    0.81969E+00   -0.60503E-01  1665   0.103E+00    0.131E+01
RMM:  12    -0.117380741529E+04    0.72838E+00   -0.23382E+00  1584   0.853E-01    0.774E+00
RMM:  13    -0.117552782316E+04   -0.17204E+01   -0.40511E+00  1584   0.143E+00    0.824E+00
RMM:  14    -0.117517271952E+04    0.35510E+00   -0.44308E-01  1587   0.741E-01    0.759E+00
RMM:  15    -0.117359035718E+04    0.15824E+01   -0.12702E+00  1584   0.817E-01    0.476E+00
RMM:  16    -0.117327038842E+04    0.31997E+00   -0.14100E-01  1614   0.236E-01    0.409E+00
RMM:  17    -0.117306197865E+04    0.20841E+00   -0.57710E-02  1606   0.110E-01    0.350E+00
RMM:  18    -0.117295213431E+04    0.10984E+00   -0.11044E-02  1534   0.624E-02    0.307E+00
RMM:  19    -0.117283776623E+04    0.11437E+00   -0.22400E-02  1583   0.861E-02    0.220E+00
RMM:  20    -0.117280626875E+04    0.31497E-01   -0.18143E-02  1558   0.854E-02    0.393E+00
RMM:  21    -0.117278767879E+04    0.18590E-01   -0.17870E-03  1220   0.508E-02    0.394E+00
RMM:  22    -0.117293594439E+04   -0.14827E+00   -0.10420E-01  1584   0.182E-01    0.174E+00
RMM:  23    -0.117297342578E+04   -0.37481E-01   -0.15424E-02  1480   0.752E-02    0.199E+00
RMM:  24    -0.117293839741E+04    0.35028E-01   -0.45110E-03  1396   0.477E-02    0.154E+00
RMM:  25    -0.117293873477E+04   -0.33736E-03   -0.55750E-04  1172   0.350E-02    0.149E+00
RMM:  26    -0.117295591913E+04   -0.17184E-01   -0.42213E-03  1470   0.530E-02    0.133E+00
RMM:  27    -0.117296275805E+04   -0.68389E-02   -0.15319E-03  1223   0.318E-02    0.126E+00
RMM:  28    -0.117297716133E+04   -0.14403E-01   -0.42104E-03  1518   0.548E-02    0.134E+00
RMM:  29    -0.117296931817E+04    0.78432E-02   -0.59598E-04  1135   0.233E-02    0.114E+00
RMM:  30    -0.117296565844E+04    0.36597E-02   -0.31819E-04  1071   0.173E-02    0.106E+00
RMM:  31    -0.117296555138E+04    0.10706E-03   -0.66752E-05  1018   0.119E-02    0.105E+00
RMM:  32    -0.117296744390E+04   -0.18925E-02   -0.17264E-04  1006   0.998E-03    0.104E+00
RMM:  33    -0.117296536811E+04    0.20758E-02   -0.11626E-04   957   0.907E-03    0.978E-01
RMM:  34    -0.117296477853E+04    0.58957E-03   -0.42396E-04  1044   0.143E-02    0.916E-01
RMM:  35    -0.117296131669E+04    0.34618E-02   -0.36390E-04  1048   0.133E-02    0.795E-01
RMM:  36    -0.117295844160E+04    0.28751E-02   -0.82661E-04  1099   0.199E-02    0.646E-01
RMM:  37    -0.117295700544E+04    0.14362E-02   -0.14478E-03  1178   0.282E-02    0.472E-01
RMM:  38    -0.117295658409E+04    0.42135E-03   -0.79343E-04  1100   0.223E-02    0.362E-01
RMM:  39    -0.117295595240E+04    0.63169E-03   -0.16060E-03  1207   0.301E-02    0.209E-01
RMM:  40    -0.117295617673E+04   -0.22433E-03   -0.31398E-04  1046   0.152E-02    0.166E-01
RMM:  41    -0.117295624050E+04   -0.63773E-04   -0.17657E-04  1027   0.119E-02
   1 F= -.11803101E+04 E0= -.11803101E+04  d E =-.118031E+04  mag=     1.0018
       N       E                     dE             d eps       ncg     rms          rms(c)
DAV:   1    -0.117295161704E+04    0.45597E-02   -0.24268E+00  1728   0.229E+00    0.843E-01
RMM:   2    -0.117295534748E+04   -0.37304E-02   -0.56861E-02  1587   0.307E-01    0.704E-01
RMM:   3    -0.117295466678E+04    0.68071E-03   -0.36907E-03  1659   0.687E-02    0.600E-01
RMM:   4    -0.117295296039E+04    0.17064E-02   -0.82461E-03  1584   0.103E-01    0.179E-01
RMM:   5    -0.117295313573E+04   -0.17534E-03   -0.91037E-04  1579   0.360E-02    0.104E-01
RMM:   6    -0.117295291893E+04    0.21680E-03   -0.65658E-04  1418   0.258E-02    0.571E-02
RMM:   7    -0.117295291385E+04    0.50786E-05   -0.57918E-05  1004   0.994E-03
   2 F= -.11803076E+04 E0= -.11803076E+04  d E =0.245766E-02  mag=     1.0001
       N       E                     dE             d eps       ncg     rms          rms(c)
DAV:   1    -0.117295908024E+04   -0.61613E-02   -0.76326E-01  1728   0.128E+00    0.456E-01
RMM:   2    -0.117295991818E+04   -0.83795E-03   -0.14809E-02  1585   0.164E-01    0.390E-01
RMM:   3    -0.117295975799E+04    0.16020E-03   -0.83392E-04  1323   0.336E-02    0.344E-01
RMM:   4    -0.117295914846E+04    0.60953E-03   -0.32280E-03  1584   0.650E-02    0.934E-02
RMM:   5    -0.117295919784E+04   -0.49389E-04   -0.13292E-04  1046   0.161E-02
   3 F= -.11803134E+04 E0= -.11803134E+04  d E =-.334110E-02  mag=     1.0000
       N       E                     dE             d eps       ncg     rms          rms(c)
DAV:   1    -0.117296271773E+04   -0.35693E-02   -0.57048E-01  1728   0.118E+00    0.402E-01
RMM:   2    -0.117296231731E+04    0.40043E-03   -0.11483E-02  1584   0.161E-01    0.301E-01
RMM:   3    -0.117296149888E+04    0.81842E-03   -0.81135E-04  1519   0.371E-02    0.260E-01
RMM:   4    -0.117295985223E+04    0.16467E-02   -0.51902E-03  1584   0.783E-02    0.108E-01
RMM:   5    -0.117295988351E+04   -0.31275E-04   -0.54237E-04  1440   0.272E-02
   4 F= -.11803136E+04 E0= -.11803136E+04  d E =-.192854E-03  mag=     1.0000
       N       E                     dE             d eps       ncg     rms          rms(c)
DAV:   1    -0.117296113855E+04   -0.12863E-02   -0.11837E-01  1728   0.535E-01    0.175E-01
RMM:   2    -0.117296096282E+04    0.17573E-03   -0.21411E-03  1584   0.696E-02    0.125E-01
RMM:   3    -0.117296082376E+04    0.13907E-03   -0.13194E-04  1020   0.163E-02    0.110E-01
RMM:   4    -0.117296045725E+04    0.36651E-03   -0.14231E-03  1584   0.408E-02    0.416E-02
RMM:   5    -0.117296048068E+04   -0.23429E-04   -0.57588E-05   995   0.105E-02
   5 F= -.11803144E+04 E0= -.11803144E+04  d E =-.101225E-02  mag=     1.0000
       N       E                     dE             d eps       ncg     rms          rms(c)
DAV:   1    -0.117296068614E+04   -0.22890E-03   -0.17042E-01  1728   0.656E-01    0.107E-01
RMM:   2    -0.117296088349E+04   -0.19734E-03   -0.34485E-03  1584   0.917E-02    0.898E-02
RMM:   3    -0.117296083850E+04    0.44985E-04   -0.13907E-04  1063   0.179E-02
   6 F= -.11803148E+04 E0= -.11803148E+04  d E =-.337766E-03  mag=     1.0000
       N       E                     dE             d eps       ncg     rms          rms(c)
DAV:   1    -0.117296081493E+04    0.68559E-04   -0.13809E-02  1728   0.187E-01    0.290E-02
RMM:   2    -0.117296087415E+04   -0.59225E-04   -0.51844E-04  1370   0.361E-02
   7 F= -.11803148E+04 E0= -.11803148E+04  d E =-.377973E-03  mag=     1.0000
