       N       E                     dE             d eps       ncg     rms          rms(c)
DAV:   1     0.480900812878E+04    0.48090E+04   -0.17228E+05  1872   0.904E+02
DAV:   2    -0.819843115940E+02   -0.48910E+04   -0.44541E+04  2520   0.206E+02
DAV:   3    -0.119134224407E+04   -0.11094E+04   -0.11029E+04  2124   0.108E+02
DAV:   4    -0.123607710070E+04   -0.44735E+02   -0.44538E+02  2052   0.284E+01
DAV:   5    -0.123722755353E+04   -0.11505E+01   -0.11483E+01  2340   0.427E+00    0.748E+01
RMM:   6    -0.122238400521E+04    0.14844E+02   -0.52081E+01  1660   0.637E+00    0.537E+01
RMM:   7    -0.120946077647E+04    0.12923E+02   -0.91083E+00  1655   0.332E+00    0.462E+01
RMM:   8    -0.118377031037E+04    0.25690E+02   -0.28838E+01  1594   0.608E+00    0.293E+01
RMM:   9    -0.116977771838E+04    0.13993E+02   -0.26746E+01  1591   0.578E+00    0.189E+01
RMM:  10    -0.116828328369E+04    0.14944E+01   -0.15285E+01  1586   0.444E+00    0.116E+01
RMM:  11    -0.116873265246E+04   -0.44937E+00   -0.21321E+00  1652   0.173E+00    0.657E+00
RMM:  12    -0.116861671357E+04    0.11594E+00   -0.10772E-01  1750   0.458E-01    0.496E+00
RMM:  13    -0.116816447665E+04    0.45224E+00   -0.16681E+00  1584   0.141E+00    0.110E+00
RMM:  14    -0.116818232289E+04   -0.17846E-01   -0.26812E-02  1702   0.252E-01    0.446E-01
RMM:  15    -0.116818088705E+04    0.14358E-02   -0.95832E-03  1651   0.108E-01    0.277E-01
RMM:  16    -0.116818139133E+04   -0.50428E-03   -0.66499E-03  1585   0.936E-02    0.239E-01
RMM:  17    -0.116818108327E+04    0.30805E-03   -0.63231E-04  1372   0.314E-02    0.144E-01
RMM:  18    -0.116818100016E+04    0.83110E-04   -0.26813E-04  1179   0.192E-02
   1 F= -.11752130E+04 E0= -.11752130E+04  d E =-.117521E+04  mag=     1.9976
       N       E                     dE             d eps       ncg     rms          rms(c)
DAV:   1    -0.116818052136E+04    0.56191E-03   -0.29796E-01  1908   0.102E+00    0.200E-01
RMM:   2    -0.116818162461E+04   -0.11033E-02   -0.15652E-02  1677   0.164E-01    0.180E-01
RMM:   3    -0.116818116815E+04    0.45646E-03   -0.95337E-04  1597   0.394E-02    0.157E-01
RMM:   4    -0.116818035601E+04    0.81214E-03   -0.20029E-03  1584   0.481E-02    0.705E-02
RMM:   5    -0.116818028914E+04    0.66866E-04   -0.32277E-04  1206   0.219E-02
   2 F= -.11752127E+04 E0= -.11752127E+04  d E =0.388248E-03  mag=     1.9998
       N       E                     dE             d eps       ncg     rms          rms(c)
DAV:   1    -0.116818173929E+04   -0.13833E-02   -0.88267E-02  1836   0.551E-01    0.102E-01
RMM:   2    -0.116818192533E+04   -0.18604E-03   -0.35430E-03  1662   0.814E-02    0.905E-02
RMM:   3    -0.116818176157E+04    0.16376E-03   -0.21184E-04  1073   0.195E-02    0.758E-02
RMM:   4    -0.116818154277E+04    0.21880E-03   -0.63259E-04  1542   0.272E-02    0.328E-02
RMM:   5    -0.116818152984E+04    0.12932E-04   -0.72591E-05  1030   0.115E-02
   3 F= -.11752137E+04 E0= -.11752137E+04  d E =-.677678E-03  mag=     2.0000
