       N       E                     dE             d eps       ncg     rms          rms(c)
DAV:   1     0.491470597446E+04    0.49147E+04   -0.17113E+05  1728   0.989E+02
DAV:   2     0.271278199418E+02   -0.48876E+04   -0.44805E+04  2232   0.218E+02
DAV:   3    -0.117455322820E+04   -0.12017E+04   -0.11959E+04  1944   0.119E+02
DAV:   4    -0.122820355648E+04   -0.53650E+02   -0.53270E+02  1836   0.330E+01
DAV:   5    -0.122969230250E+04   -0.14887E+01   -0.14854E+01  2232   0.492E+00    0.703E+01
RMM:   6    -0.121660477730E+04    0.13088E+02   -0.76987E+00  1444   0.335E+00    0.592E+01
RMM:   7    -0.117076948013E+04    0.45835E+02   -0.81742E+01  1444   0.108E+01    0.334E+01
RMM:   8    -0.116391050966E+04    0.68590E+01   -0.37275E+01  1453   0.734E+00    0.160E+01
RMM:   9    -0.116518101414E+04   -0.12705E+01   -0.11256E+01  1466   0.410E+00    0.100E+01
RMM:  10    -0.116388751367E+04    0.12935E+01   -0.27341E+00  1443   0.170E+00    0.524E+00
RMM:  11    -0.116363584552E+04    0.25167E+00   -0.47393E-01  1474   0.710E-01    0.307E+00
RMM:  12    -0.116350911490E+04    0.12673E+00   -0.32638E-01  1441   0.663E-01    0.210E+00
RMM:  13    -0.116344569273E+04    0.63422E-01   -0.24580E-01  1446   0.549E-01    0.664E-01
RMM:  14    -0.116344243496E+04    0.32578E-02   -0.23697E-02  1554   0.151E-01    0.427E-01
RMM:  15    -0.116344230888E+04    0.12608E-03   -0.35032E-03  1425   0.592E-02    0.370E-01
RMM:  16    -0.116344249364E+04   -0.18475E-03   -0.42904E-03  1501   0.672E-02    0.155E-01
RMM:  17    -0.116344236578E+04    0.12785E-03   -0.34480E-04  1051   0.211E-02    0.983E-02
RMM:  18    -0.116344226726E+04    0.98525E-04   -0.33501E-04  1063   0.213E-02
   1 F= -.11705258E+04 E0= -.11705258E+04  d E =-.117053E+04  mag=    -0.0001
       N       E                     dE             d eps       ncg     rms          rms(c)
DAV:   1    -0.116344190777E+04    0.45801E-03   -0.48269E-01  1584   0.110E+00    0.851E-01
RMM:   2    -0.116344379578E+04   -0.18880E-02   -0.23109E-02  1479   0.163E-01    0.793E-01
RMM:   3    -0.116344304855E+04    0.74722E-03   -0.15746E-03  1472   0.472E-02    0.537E-01
RMM:   4    -0.116344319575E+04   -0.14719E-03   -0.34426E-03  1450   0.649E-02    0.117E-01
RMM:   5    -0.116344288490E+04    0.31085E-03   -0.46248E-04  1121   0.222E-02    0.687E-02
RMM:   6    -0.116344289908E+04   -0.14176E-04   -0.21022E-04   957   0.153E-02
   2 F= -.11705264E+04 E0= -.11705264E+04  d E =-.567060E-03  mag=     0.0000
       N       E                     dE             d eps       ncg     rms          rms(c)
DAV:   1    -0.116344358801E+04   -0.70311E-03   -0.10065E-01  1476   0.498E-01    0.401E-01
RMM:   2    -0.116344388359E+04   -0.29558E-03   -0.41034E-03  1465   0.734E-02    0.369E-01
RMM:   3    -0.116344365798E+04    0.22561E-03   -0.37387E-04  1006   0.248E-02    0.214E-01
RMM:   4    -0.116344368642E+04   -0.28437E-04   -0.63041E-04  1317   0.298E-02
   3 F= -.11705272E+04 E0= -.11705272E+04  d E =-.138305E-02  mag=     0.0000
       N       E                     dE             d eps       ncg     rms          rms(c)
DAV:   1    -0.116344372477E+04   -0.66782E-04   -0.34633E-01  1476   0.988E-01    0.517E-01
RMM:   2    -0.116344448940E+04   -0.76463E-03   -0.12217E-02  1446   0.139E-01    0.446E-01
RMM:   3    -0.116344358354E+04    0.90586E-03   -0.13334E-03  1442   0.471E-02    0.256E-01
RMM:   4    -0.116344350416E+04    0.79385E-04   -0.18368E-03  1440   0.505E-02    0.737E-02
RMM:   5    -0.116344342682E+04    0.77338E-04   -0.20220E-04   962   0.158E-02
   4 F= -.11705270E+04 E0= -.11705270E+04  d E =0.170282E-03  mag=     0.0000
       N       E                     dE             d eps       ncg     rms          rms(c)
DAV:   1    -0.116344445875E+04   -0.95459E-03   -0.10378E-01  1512   0.541E-01    0.299E-01
RMM:   2    -0.116344462764E+04   -0.16889E-03   -0.37142E-03  1444   0.762E-02    0.259E-01
RMM:   3    -0.116344423463E+04    0.39301E-03   -0.55358E-04  1354   0.301E-02    0.145E-01
RMM:   4    -0.116344419780E+04    0.36831E-04   -0.73494E-04  1412   0.324E-02
   5 F= -.11705277E+04 E0= -.11705277E+04  d E =-.552588E-03  mag=     0.0000
