       N       E                     dE             d eps       ncg     rms          rms(c)
DAV:   1     0.485068038930E+04    0.48507E+04   -0.17576E+05  1836   0.925E+02
DAV:   2    -0.768822590342E+02   -0.49276E+04   -0.45264E+04  2592   0.213E+02
DAV:   3    -0.118472660226E+04   -0.11078E+04   -0.11031E+04  2016   0.109E+02
DAV:   4    -0.123092902345E+04   -0.46202E+02   -0.45977E+02  1944   0.297E+01
DAV:   5    -0.123221142138E+04   -0.12824E+01   -0.12796E+01  2340   0.469E+00    0.606E+01
RMM:   6    -0.122024124192E+04    0.11970E+02   -0.71114E+00  1584   0.318E+00    0.494E+01
RMM:   7    -0.118024610221E+04    0.39995E+02   -0.60766E+01  1584   0.912E+00    0.306E+01
RMM:   8    -0.117334341224E+04    0.69027E+01   -0.10435E+01  1586   0.376E+00    0.238E+01
RMM:   9    -0.116998553737E+04    0.33579E+01   -0.31537E+01  1584   0.639E+00    0.128E+01
RMM:  10    -0.116973376340E+04    0.25177E+00   -0.19851E+00  1615   0.173E+00    0.831E+00
RMM:  11    -0.116947287095E+04    0.26089E+00   -0.18893E-01  1584   0.519E-01    0.682E+00
RMM:  12    -0.116933240871E+04    0.14046E+00   -0.24437E+00  1584   0.153E+00    0.720E+00
RMM:  13    -0.116901346562E+04    0.31894E+00   -0.25098E-01  1584   0.532E-01    0.267E+00
RMM:  14    -0.116902952113E+04   -0.16056E-01   -0.55713E-02  1613   0.266E-01    0.245E+00
RMM:  15    -0.116901143549E+04    0.18086E-01   -0.39983E-02  1584   0.196E-01    0.427E+00
RMM:  16    -0.116902561530E+04   -0.14180E-01   -0.38900E-02  1585   0.145E-01    0.254E+00
RMM:  17    -0.116902707533E+04   -0.14600E-02   -0.43003E-03  1557   0.761E-02    0.259E+00
RMM:  18    -0.116900351919E+04    0.23556E-01   -0.10969E-03  1322   0.335E-02    0.231E+00
RMM:  19    -0.116898871459E+04    0.14805E-01   -0.25916E-03  1320   0.353E-02    0.799E-01
RMM:  20    -0.116899502810E+04   -0.63135E-02   -0.35955E-04  1128   0.254E-02    0.677E-01
RMM:  21    -0.116899617246E+04   -0.11444E-02   -0.54029E-04  1142   0.230E-02    0.293E-01
RMM:  22    -0.116899735634E+04   -0.11839E-02   -0.11663E-04  1053   0.176E-02    0.304E-02
RMM:  23    -0.116899753768E+04   -0.18134E-03   -0.49615E-05  1004   0.918E-03    0.279E-01
RMM:  24    -0.116899726783E+04    0.26985E-03   -0.25853E-05   953   0.786E-03    0.920E-02
RMM:  25    -0.116899738056E+04   -0.11273E-03   -0.13632E-05   835   0.538E-03    0.514E-02
RMM:  26    -0.116899743267E+04   -0.52116E-04   -0.54730E-06   723   0.457E-03
   1 F= -.11761988E+04 E0= -.11761864E+04  d E =-.117620E+04  mag=     0.7766
       N       E                     dE             d eps       ncg     rms          rms(c)
DAV:   1    -0.116899688413E+04    0.49643E-03   -0.35689E-01  1656   0.865E-01    0.230E-01
RMM:   2    -0.116899779525E+04   -0.91112E-03   -0.10906E-02  1584   0.132E-01    0.475E-01
RMM:   3    -0.116899715813E+04    0.63711E-03   -0.45011E-04  1215   0.294E-02    0.156E-01
RMM:   4    -0.116899722182E+04   -0.63682E-04   -0.16412E-04  1045   0.187E-02
   2 F= -.11761985E+04 E0= -.11761861E+04  d E =0.293733E-03  mag=     0.7747
       N       E                     dE             d eps       ncg     rms          rms(c)
DAV:   1    -0.116899779856E+04   -0.64043E-03   -0.13890E-01  1656   0.542E-01    0.158E-01
RMM:   2    -0.116899839680E+04   -0.59823E-03   -0.45136E-03  1584   0.892E-02    0.429E-01
RMM:   3    -0.116899787456E+04    0.52224E-03   -0.18179E-04  1060   0.199E-02    0.750E-02
RMM:   4    -0.116899811039E+04   -0.23584E-03   -0.65387E-05  1008   0.126E-02    0.610E-02
RMM:   5    -0.116899806154E+04    0.48859E-04   -0.22369E-04  1058   0.169E-02
   3 F= -.11761993E+04 E0= -.11761871E+04  d E =-.594897E-03  mag=     0.7783
