       N       E                     dE             d eps       ncg     rms          rms(c)
DAV:   1     0.469684482878E+04    0.46968E+04   -0.17712E+05  1908   0.913E+02
DAV:   2    -0.105427748952E+03   -0.48023E+04   -0.43828E+04  2520   0.209E+02
DAV:   3    -0.119285512983E+04   -0.10874E+04   -0.10826E+04  2088   0.108E+02
DAV:   4    -0.123694184261E+04   -0.44087E+02   -0.43863E+02  2052   0.290E+01
DAV:   5    -0.123813119559E+04   -0.11894E+01   -0.11863E+01  2376   0.448E+00    0.767E+01
RMM:   6    -0.122232924679E+04    0.15802E+02   -0.91566E+01  1627   0.117E+01    0.810E+01
RMM:   7    -0.120958475743E+04    0.12744E+02   -0.55055E+00  1599   0.341E+00    0.576E+01
RMM:   8    -0.119497150434E+04    0.14613E+02   -0.97224E+00  1584   0.408E+00    0.407E+01
RMM:   9    -0.118064491360E+04    0.14327E+02   -0.13699E+01  1584   0.458E+00    0.318E+01
RMM:  10    -0.116767927225E+04    0.12966E+02   -0.19944E+01  1588   0.527E+00    0.221E+01
RMM:  11    -0.116599349422E+04    0.16858E+01   -0.13677E+01  1585   0.475E+00    0.129E+01
RMM:  12    -0.116615741686E+04   -0.16392E+00   -0.27529E+00  1593   0.213E+00    0.966E+00
RMM:  13    -0.116611092046E+04    0.46496E-01   -0.82089E-01  1631   0.129E+00    0.807E+00
RMM:  14    -0.116567715626E+04    0.43376E+00   -0.10140E+00  1584   0.122E+00    0.268E+00
RMM:  15    -0.116565840066E+04    0.18756E-01   -0.85016E-02  1586   0.436E-01    0.260E+00
RMM:  16    -0.116564444564E+04    0.13955E-01   -0.47147E-02  1604   0.269E-01    0.841E-01
RMM:  17    -0.116564258774E+04    0.18579E-02   -0.27665E-02  1588   0.208E-01    0.465E-01
RMM:  18    -0.116564219861E+04    0.38913E-03   -0.35797E-03  1604   0.101E-01    0.356E-01
RMM:  19    -0.116564214874E+04    0.49865E-04   -0.35557E-04  1170   0.277E-02
   1 F= -.11726836E+04 E0= -.11726835E+04  d E =-.117268E+04  mag=    -0.9845
       N       E                     dE             d eps       ncg     rms          rms(c)
DAV:   1    -0.116564172555E+04    0.47306E-03   -0.37931E-01  1836   0.104E+00    0.254E-01
RMM:   2    -0.116564262417E+04   -0.89862E-03   -0.13454E-02  1624   0.184E-01    0.214E-01
RMM:   3    -0.116564205065E+04    0.57352E-03   -0.11804E-03  1661   0.541E-02    0.155E-01
RMM:   4    -0.116564153970E+04    0.51095E-03   -0.12170E-03  1582   0.407E-02    0.856E-02
RMM:   5    -0.116564147067E+04    0.69030E-04   -0.32079E-04  1208   0.252E-02
   2 F= -.11726829E+04 E0= -.11726828E+04  d E =0.631624E-03  mag=    -0.9976
       N       E                     dE             d eps       ncg     rms          rms(c)
DAV:   1    -0.116564309949E+04   -0.15598E-02   -0.13582E-01  1836   0.614E-01    0.108E-01
RMM:   2    -0.116564330636E+04   -0.20687E-03   -0.41600E-03  1603   0.109E-01    0.104E-01
RMM:   3    -0.116564318990E+04    0.11647E-03   -0.24567E-04  1134   0.279E-02    0.989E-02
RMM:   4    -0.116564298998E+04    0.19992E-03   -0.21115E-04  1080   0.207E-02    0.676E-02
RMM:   5    -0.116564287723E+04    0.11275E-03   -0.69079E-04  1540   0.305E-02    0.281E-02
RMM:   6    -0.116564287363E+04    0.35984E-05   -0.21798E-05   996   0.106E-02
   3 F= -.11726843E+04 E0= -.11726842E+04  d E =-.742841E-03  mag=    -0.9984
