       N       E                     dE             d eps       ncg     rms          rms(c)
DAV:   1     0.500210821289E+04    0.50021E+04   -0.17429E+05  1872   0.925E+02
DAV:   2    -0.358728317480E+02   -0.50380E+04   -0.46126E+04  2556   0.212E+02
DAV:   3    -0.119838929956E+04   -0.11625E+04   -0.11561E+04  2016   0.113E+02
DAV:   4    -0.124811070068E+04   -0.49721E+02   -0.49418E+02  2016   0.318E+01
DAV:   5    -0.124952238129E+04   -0.14117E+01   -0.14079E+01  2340   0.490E+00    0.698E+01
RMM:   6    -0.123212545979E+04    0.17397E+02   -0.32268E+01  1609   0.622E+00    0.617E+01
RMM:   7    -0.121840175853E+04    0.13724E+02   -0.58777E+00  1586   0.307E+00    0.472E+01
RMM:   8    -0.119319254904E+04    0.25209E+02   -0.29498E+01  1584   0.645E+00    0.303E+01
RMM:   9    -0.118026188002E+04    0.12931E+02   -0.21658E+01  1590   0.571E+00    0.211E+01
RMM:  10    -0.118064387409E+04   -0.38199E+00   -0.20973E+01  1584   0.555E+00    0.105E+01
RMM:  11    -0.118033656095E+04    0.30731E+00   -0.15238E+00  1616   0.233E+00    0.688E+00
RMM:  12    -0.118003250747E+04    0.30405E+00   -0.19874E-01  1594   0.527E-01    0.579E+00
RMM:  13    -0.117959038520E+04    0.44212E+00   -0.20996E+00  1584   0.167E+00    0.117E+00
RMM:  14    -0.117957197406E+04    0.18411E-01   -0.61079E-02  1621   0.522E-01    0.116E+00
RMM:  15    -0.117956545792E+04    0.65161E-02   -0.11358E-02  1594   0.113E-01    0.916E-01
RMM:  16    -0.117956409318E+04    0.13647E-02   -0.68815E-03  1669   0.112E-01    0.622E-01
RMM:  17    -0.117956362929E+04    0.46390E-03   -0.50679E-03  1703   0.851E-02    0.381E-01
RMM:  18    -0.117956404226E+04   -0.41297E-03   -0.10314E-03  1443   0.447E-02    0.226E-01
RMM:  19    -0.117956382029E+04    0.22197E-03   -0.40990E-04  1167   0.282E-02    0.105E-01
RMM:  20    -0.117956371949E+04    0.10080E-03   -0.55636E-04  1375   0.274E-02    0.654E-02
RMM:  21    -0.117956375745E+04   -0.37960E-04   -0.10202E-04  1019   0.184E-02
   1 F= -.11869622E+04 E0= -.11869622E+04  d E =-.118696E+04  mag=     0.9982
       N       E                     dE             d eps       ncg     rms          rms(c)
DAV:   1    -0.117956317343E+04    0.54606E-03   -0.26907E-01  1656   0.835E-01    0.162E-01
RMM:   2    -0.117956362058E+04   -0.44716E-03   -0.73841E-03  1605   0.130E-01    0.159E-01
RMM:   3    -0.117956353676E+04    0.83820E-04   -0.49694E-04  1286   0.410E-02
   2 F= -.11869624E+04 E0= -.11869624E+04  d E =-.211645E-03  mag=     0.9992
       N       E                     dE             d eps       ncg     rms          rms(c)
DAV:   1    -0.117956385794E+04   -0.23735E-03   -0.40048E-02  1800   0.321E-01    0.148E-01
RMM:   2    -0.117956396408E+04   -0.10614E-03   -0.10026E-03  1574   0.487E-02    0.113E-01
RMM:   3    -0.117956392400E+04    0.40080E-04   -0.15837E-04  1009   0.205E-02
   3 F= -.11869626E+04 E0= -.11869626E+04  d E =-.431584E-03  mag=     1.0002
