       N       E                     dE             d eps       ncg     rms          rms(c)
DAV:   1     0.493456379575E+04    0.49346E+04   -0.16895E+05  1800   0.904E+02
DAV:   2    -0.443989543266E+02   -0.49790E+04   -0.45220E+04  2520   0.208E+02
DAV:   3    -0.117987001591E+04   -0.11355E+04   -0.11303E+04  2160   0.110E+02
DAV:   4    -0.122471989361E+04   -0.44850E+02   -0.44624E+02  2052   0.287E+01
DAV:   5    -0.122587355067E+04   -0.11537E+01   -0.11510E+01  2376   0.423E+00    0.656E+01
RMM:   6    -0.120833346351E+04    0.17540E+02   -0.24959E+01  1584   0.483E+00    0.517E+01
RMM:   7    -0.119148961792E+04    0.16844E+02   -0.10971E+01  1584   0.384E+00    0.406E+01
RMM:   8    -0.116292812578E+04    0.28561E+02   -0.46672E+01  1584   0.780E+00    0.240E+01
RMM:   9    -0.116038708934E+04    0.25410E+01   -0.36583E+01  1584   0.681E+00    0.928E+00
RMM:  10    -0.116059808924E+04   -0.21100E+00   -0.15303E+00  1616   0.158E+00    0.794E+00
RMM:  11    -0.115976587948E+04    0.83221E+00   -0.29378E+00  1584   0.179E+00    0.277E+00
RMM:  12    -0.115957878299E+04    0.18710E+00   -0.24724E-01  1584   0.475E-01    0.178E+00
RMM:  13    -0.115950465592E+04    0.74127E-01   -0.16524E-01  1584   0.453E-01    0.717E-01
RMM:  14    -0.115949917034E+04    0.54856E-02   -0.38476E-02  1585   0.228E-01    0.282E-01
RMM:  15    -0.115949919389E+04   -0.23552E-04   -0.81189E-03  1607   0.108E-01    0.227E-01
RMM:  16    -0.115950018776E+04   -0.99387E-03   -0.13813E-03  1593   0.462E-02    0.213E-01
RMM:  17    -0.115949947731E+04    0.71045E-03   -0.19724E-03  1584   0.504E-02    0.795E-02
RMM:  18    -0.115949950955E+04   -0.32242E-04   -0.41863E-05  1025   0.911E-03
   1 F= -.11667042E+04 E0= -.11667042E+04  d E =-.116670E+04  mag=    -0.0047
       N       E                     dE             d eps       ncg     rms          rms(c)
DAV:   1    -0.115949569676E+04    0.37806E-02   -0.24941E+00  1764   0.233E+00    0.782E-01
RMM:   2    -0.115949969849E+04   -0.40017E-02   -0.57240E-02  1584   0.312E-01    0.721E-01
RMM:   3    -0.115949814141E+04    0.15571E-02   -0.39607E-03  1642   0.725E-02    0.607E-01
RMM:   4    -0.115949588382E+04    0.22576E-02   -0.14539E-02  1584   0.135E-01    0.128E-01
RMM:   5    -0.115949577082E+04    0.11300E-03   -0.30068E-04  1199   0.250E-02    0.999E-02
RMM:   6    -0.115949560014E+04    0.17069E-03   -0.10959E-03  1548   0.337E-02    0.470E-02
RMM:   7    -0.115949561100E+04   -0.10867E-04   -0.16767E-04  1064   0.144E-02
   2 F= -.11667013E+04 E0= -.11667013E+04  d E =0.285221E-02  mag=     0.0001
       N       E                     dE             d eps       ncg     rms          rms(c)
DAV:   1    -0.115950228771E+04   -0.66876E-02   -0.83995E-01  1728   0.135E+00    0.445E-01
RMM:   2    -0.115950347474E+04   -0.11870E-02   -0.17365E-02  1585   0.174E-01    0.411E-01
RMM:   3    -0.115950295389E+04    0.52086E-03   -0.11444E-03  1526   0.396E-02    0.340E-01
RMM:   4    -0.115950234698E+04    0.60691E-03   -0.43927E-03  1584   0.745E-02    0.695E-02
RMM:   5    -0.115950227549E+04    0.71494E-04   -0.76384E-05  1043   0.132E-02
   3 F= -.11667074E+04 E0= -.11667074E+04  d E =-.320770E-02  mag=     0.0000
       N       E                     dE             d eps       ncg     rms          rms(c)
DAV:   1    -0.115950478615E+04   -0.24392E-02   -0.68158E-01  1728   0.128E+00    0.366E-01
RMM:   2    -0.115950528148E+04   -0.49533E-03   -0.14775E-02  1584   0.176E-01    0.307E-01
RMM:   3    -0.115950408040E+04    0.12011E-02   -0.12684E-03  1610   0.453E-02    0.233E-01
RMM:   4    -0.115950301699E+04    0.10634E-02   -0.55065E-03  1584   0.804E-02    0.711E-02
RMM:   5    -0.115950295931E+04    0.57682E-04   -0.11064E-04  1065   0.155E-02
   4 F= -.11667074E+04 E0= -.11667074E+04  d E =-.478639E-04  mag=     0.0000
       N       E                     dE             d eps       ncg     rms          rms(c)
DAV:   1    -0.115950425613E+04   -0.12391E-02   -0.15817E-01  1728   0.617E-01    0.159E-01
RMM:   2    -0.115950428713E+04   -0.30995E-04   -0.28858E-03  1584   0.778E-02    0.139E-01
RMM:   3    -0.115950399107E+04    0.29606E-03   -0.27695E-04  1128   0.220E-02    0.106E-01
RMM:   4    -0.115950374608E+04    0.24499E-03   -0.14290E-03  1584   0.415E-02    0.312E-02
RMM:   5    -0.115950373713E+04    0.89437E-05   -0.23664E-05   992   0.771E-03
   5 F= -.11667085E+04 E0= -.11667085E+04  d E =-.113051E-02  mag=     0.0000
       N       E                     dE             d eps       ncg     rms          rms(c)
DAV:   1    -0.115950422752E+04   -0.48144E-03   -0.32645E-01  1656   0.881E-01    0.122E-01
RMM:   2    -0.115950463589E+04   -0.40837E-03   -0.62400E-03  1584   0.117E-01    0.115E-01
RMM:   3    -0.115950455112E+04    0.84768E-04   -0.32445E-04  1181   0.251E-02
   6 F= -.11667093E+04 E0= -.11667093E+04  d E =-.806300E-03  mag=    -0.0000
       N       E                     dE             d eps       ncg     rms          rms(c)
DAV:   1    -0.115950427868E+04    0.35721E-03   -0.82795E-04  1800   0.485E-02    0.406E-02
RMM:   2    -0.115950427976E+04   -0.10740E-05   -0.12939E-04  1026   0.183E-02
   7 F= -.11667091E+04 E0= -.11667091E+04  d E =-.534809E-03  mag=    -0.0000
