       N       E                     dE             d eps       ncg     rms          rms(c)
DAV:   1     0.486345130165E+04    0.48635E+04   -0.16957E+05  1728   0.986E+02
DAV:   2    -0.364784876494E+01   -0.48671E+04   -0.44732E+04  2268   0.218E+02
DAV:   3    -0.117744440630E+04   -0.11738E+04   -0.11669E+04  1872   0.118E+02
DAV:   4    -0.122840713925E+04   -0.50963E+02   -0.50633E+02  1872   0.328E+01
DAV:   5    -0.122964467715E+04   -0.12375E+01   -0.12345E+01  2088   0.480E+00    0.638E+01
RMM:   6    -0.121579324895E+04    0.13851E+02   -0.18408E+01  1440   0.470E+00    0.500E+01
RMM:   7    -0.119723234052E+04    0.18561E+02   -0.11910E+01  1440   0.431E+00    0.387E+01
RMM:   8    -0.116966456054E+04    0.27568E+02   -0.44037E+01  1440   0.821E+00    0.240E+01
RMM:   9    -0.116448053877E+04    0.51840E+01   -0.24031E+01  1440   0.605E+00    0.136E+01
RMM:  10    -0.116601390308E+04   -0.15334E+01   -0.63009E+00  1442   0.316E+00    0.871E+00
RMM:  11    -0.116534823968E+04    0.66566E+00   -0.11490E+00  1474   0.114E+00    0.574E+00
RMM:  12    -0.116476964407E+04    0.57860E+00   -0.17313E+00  1440   0.158E+00    0.128E+00
RMM:  13    -0.116478377763E+04   -0.14134E-01   -0.67147E-02  1454   0.356E-01    0.606E-01
RMM:  14    -0.116478596896E+04   -0.21913E-02   -0.10771E-02  1446   0.134E-01    0.322E-01
RMM:  15    -0.116478646010E+04   -0.49114E-03   -0.11789E-02  1440   0.135E-01    0.245E-01
RMM:  16    -0.116478601333E+04    0.44677E-03   -0.15105E-03  1436   0.489E-02    0.136E-01
RMM:  17    -0.116478587689E+04    0.13644E-03   -0.14007E-03  1437   0.435E-02    0.649E-02
RMM:  18    -0.116478596439E+04   -0.87494E-04   -0.37541E-04  1103   0.248E-02
   1 F= -.11719207E+04 E0= -.11719189E+04  d E =-.117192E+04  mag=    -0.9558
       N       E                     dE             d eps       ncg     rms          rms(c)
DAV:   1    -0.116478808247E+04   -0.22056E-02   -0.10765E+00  1512   0.160E+00    0.415E-01
RMM:   2    -0.116478880148E+04   -0.71901E-03   -0.19748E-02  1440   0.216E-01    0.397E-01
RMM:   3    -0.116478803044E+04    0.77104E-03   -0.15415E-03  1452   0.489E-02    0.356E-01
RMM:   4    -0.116478581311E+04    0.22173E-02   -0.67172E-03  1440   0.972E-02    0.107E-01
RMM:   5    -0.116478588300E+04   -0.69891E-04   -0.85491E-04  1440   0.364E-02
   2 F= -.11719211E+04 E0= -.11719192E+04  d E =-.394093E-03  mag=    -0.9548
       N       E                     dE             d eps       ncg     rms          rms(c)
DAV:   1    -0.116478869028E+04   -0.28772E-02   -0.24602E-01  1548   0.765E-01    0.183E-01
RMM:   2    -0.116478870873E+04   -0.18449E-04   -0.36975E-03  1440   0.969E-02    0.174E-01
RMM:   3    -0.116478845921E+04    0.24952E-03   -0.26119E-04   986   0.223E-02    0.152E-01
RMM:   4    -0.116478792789E+04    0.53132E-03   -0.19447E-03  1440   0.525E-02    0.401E-02
RMM:   5    -0.116478793969E+04   -0.11797E-04   -0.87040E-05   878   0.137E-02
   3 F= -.11719230E+04 E0= -.11719211E+04  d E =-.222004E-02  mag=    -0.9557
       N       E                     dE             d eps       ncg     rms          rms(c)
DAV:   1    -0.116478927240E+04   -0.13445E-02   -0.65314E-01  1512   0.130E+00    0.232E-01
RMM:   2    -0.116478982619E+04   -0.55378E-03   -0.11170E-02  1440   0.173E-01    0.214E-01
RMM:   3    -0.116478935533E+04    0.47086E-03   -0.70088E-04  1231   0.377E-02    0.181E-01
RMM:   4    -0.116478861904E+04    0.73629E-03   -0.32391E-03  1440   0.664E-02    0.604E-02
RMM:   5    -0.116478860639E+04    0.12647E-04   -0.15079E-04   933   0.179E-02
   4 F= -.11719236E+04 E0= -.11719216E+04  d E =-.623099E-03  mag=    -0.9537
       N       E                     dE             d eps       ncg     rms          rms(c)
DAV:   1    -0.116478937155E+04   -0.75251E-03   -0.11321E-01  1584   0.541E-01    0.931E-02
RMM:   2    -0.116478942831E+04   -0.56757E-04   -0.17853E-03  1439   0.687E-02    0.868E-02
RMM:   3    -0.116478930407E+04    0.12424E-03   -0.11987E-04   880   0.166E-02    0.699E-02
RMM:   4    -0.116478915772E+04    0.14635E-03   -0.72357E-04  1394   0.318E-02    0.222E-02
RMM:   5    -0.116478915512E+04    0.25971E-05   -0.19125E-05   860   0.719E-03
   5 F= -.11719241E+04 E0= -.11719222E+04  d E =-.119063E-02  mag=    -0.9544
       N       E                     dE             d eps       ncg     rms          rms(c)
DAV:   1    -0.116479021035E+04   -0.10526E-02   -0.46064E-01  1584   0.106E+00    0.133E-01
RMM:   2    -0.116479071947E+04   -0.50913E-03   -0.71623E-03  1440   0.137E-01    0.128E-01
RMM:   3    -0.116479064251E+04    0.76961E-04   -0.40004E-04  1069   0.298E-02
   6 F= -.11719257E+04 E0= -.11719238E+04  d E =-.158613E-02  mag=    -0.9532
       N       E                     dE             d eps       ncg     rms          rms(c)
DAV:   1    -0.116478975731E+04    0.96216E-03   -0.42847E-01  1584   0.102E+00    0.177E-01
RMM:   2    -0.116479009855E+04   -0.34123E-03   -0.60495E-03  1440   0.125E-01    0.168E-01
RMM:   3    -0.116478994382E+04    0.15472E-03   -0.38133E-04  1069   0.292E-02    0.142E-01
RMM:   4    -0.116478981636E+04    0.12746E-03   -0.14341E-03  1410   0.461E-02    0.373E-02
RMM:   5    -0.116478981601E+04    0.35153E-06   -0.46939E-05   893   0.107E-02
   7 F= -.11719250E+04 E0= -.11719230E+04  d E =-.860122E-03  mag=    -0.9516
       N       E                     dE             d eps       ncg     rms          rms(c)
DAV:   1    -0.116479043109E+04   -0.61473E-03   -0.15124E-01  1584   0.604E-01    0.801E-02
RMM:   2    -0.116479056472E+04   -0.13363E-03   -0.22201E-03  1440   0.759E-02    0.775E-02
RMM:   3    -0.116479051580E+04    0.48923E-04   -0.11237E-04   887   0.167E-02
   8 F= -.11719256E+04 E0= -.11719237E+04  d E =-.150058E-02  mag=    -0.9526
       N       E                     dE             d eps       ncg     rms          rms(c)
DAV:   1    -0.116479039569E+04    0.16903E-03   -0.46090E-01  1584   0.118E+00    0.215E-01
RMM:   2    -0.116479087572E+04   -0.48003E-03   -0.10999E-02  1440   0.173E-01    0.205E-01
RMM:   3    -0.116479033680E+04    0.53892E-03   -0.60082E-04  1179   0.363E-02    0.178E-01
RMM:   4    -0.116478927444E+04    0.10624E-02   -0.46944E-03  1440   0.807E-02    0.659E-02
RMM:   5    -0.116478920642E+04    0.68025E-04   -0.87734E-05   898   0.153E-02
   9 F= -.11719244E+04 E0= -.11719224E+04  d E =0.127675E-02  mag=    -0.9532
       N       E                     dE             d eps       ncg     rms          rms(c)
DAV:   1    -0.116479180162E+04   -0.25272E-02   -0.17767E-01  1584   0.730E-01    0.121E-01
RMM:   2    -0.116479197762E+04   -0.17599E-03   -0.41300E-03  1440   0.106E-01    0.116E-01
RMM:   3    -0.116479180428E+04    0.17333E-03   -0.18076E-04   944   0.214E-02    0.103E-01
RMM:   4    -0.116479140325E+04    0.40104E-03   -0.19633E-03  1440   0.528E-02    0.347E-02
RMM:   5    -0.116479138629E+04    0.16957E-04   -0.33060E-05   862   0.975E-03
  10 F= -.11719265E+04 E0= -.11719246E+04  d E =-.881541E-03  mag=    -0.9528
