       N       E                     dE             d eps       ncg     rms          rms(c)
DAV:   1     0.482619190685E+04    0.48262E+04   -0.17537E+05  1944   0.918E+02
DAV:   2     0.869722908572E+01   -0.48175E+04   -0.43828E+04  2556   0.210E+02
DAV:   3    -0.119424364903E+04   -0.12029E+04   -0.11962E+04  2304   0.114E+02
DAV:   4    -0.124841672792E+04   -0.54173E+02   -0.53846E+02  2160   0.317E+01
DAV:   5    -0.125038089402E+04   -0.19642E+01   -0.19583E+01  2376   0.603E+00    0.739E+01
RMM:   6    -0.123089746907E+04    0.19483E+02   -0.10778E+01  2126   0.530E+00    0.567E+01
RMM:   7    -0.119861451235E+04    0.32283E+02   -0.49871E+01  2112   0.104E+01    0.340E+01
RMM:   8    -0.118346491070E+04    0.15150E+02   -0.26669E+01  2078   0.735E+00    0.256E+01
RMM:   9    -0.117890433374E+04    0.45606E+01   -0.14936E+01  2084   0.747E+00    0.172E+01
RMM:  10    -0.118040303605E+04   -0.14987E+01   -0.81308E+00  2107   0.424E+00    0.954E+00
RMM:  11    -0.118054943659E+04   -0.14640E+00   -0.59145E-01  2040   0.204E+00    0.713E+00
RMM:  12    -0.117982402295E+04    0.72541E+00   -0.19990E+00  2088   0.207E+00    0.330E+00
RMM:  13    -0.117973173749E+04    0.92285E-01   -0.24241E-01  2115   0.154E+00    0.191E+00
RMM:  14    -0.117971869605E+04    0.13041E-01   -0.14909E-01  2106   0.599E-01    0.630E-01
RMM:  15    -0.117972184609E+04   -0.31500E-02   -0.16760E-02  2016   0.275E-01    0.487E-01
RMM:  16    -0.117972165064E+04    0.19545E-03   -0.56583E-03  1850   0.163E-01    0.240E-01
RMM:  17    -0.117972176109E+04   -0.11045E-03   -0.30593E-03  1608   0.132E-01    0.158E-01
RMM:  18    -0.117972180319E+04   -0.42105E-04   -0.63649E-04  1252   0.128E-01
   1 F= -.11870526E+04 E0= -.11870526E+04  d E =-.118705E+04  mag=     0.9929
       N       E                     dE             d eps       ncg     rms          rms(c)
DAV:   1    -0.117971769895E+04    0.40621E-02   -0.66899E-01  2016   0.176E+00    0.616E-01
RMM:   2    -0.117972116742E+04   -0.34685E-02   -0.40884E-02  2269   0.245E-01    0.642E-01
RMM:   3    -0.117972136045E+04   -0.19303E-03   -0.25211E-03  1271   0.371E-01    0.595E-01
RMM:   4    -0.117972099760E+04    0.36285E-03   -0.63229E-04  1318   0.131E-01    0.545E-01
RMM:   5    -0.117972024514E+04    0.75246E-03   -0.21132E-03  1681   0.151E-01    0.322E-01
RMM:   6    -0.117972037131E+04   -0.12617E-03   -0.12637E-03  1529   0.146E-01    0.237E-01
RMM:   7    -0.117972036710E+04    0.42122E-05   -0.82703E-04  1358   0.159E-01
   2 F= -.11870517E+04 E0= -.11870517E+04  d E =0.966573E-03  mag=     0.9996
       N       E                     dE             d eps       ncg     rms          rms(c)
DAV:   1    -0.117972210248E+04   -0.17312E-02   -0.22398E-01  2304   0.101E+00    0.337E-01
RMM:   2    -0.117972300629E+04   -0.90381E-03   -0.12559E-02  2199   0.139E-01    0.327E-01
RMM:   3    -0.117972292493E+04    0.81361E-04   -0.12960E-03  1246   0.273E-01    0.313E-01
RMM:   4    -0.117972261301E+04    0.31191E-03   -0.26346E-04  1185   0.101E-01    0.248E-01
RMM:   5    -0.117972236218E+04    0.25083E-03   -0.36128E-04  1201   0.129E-01    0.173E-01
RMM:   6    -0.117972237392E+04   -0.11745E-04   -0.10261E-03  1396   0.164E-01    0.762E-02
RMM:   7    -0.117972241234E+04   -0.38420E-04   -0.50520E-04  1302   0.160E-01
   3 F= -.11870534E+04 E0= -.11870534E+04  d E =-.809121E-03  mag=     1.0000
