       N       E                     dE             d eps       ncg     rms          rms(c)
DAV:   1     0.485854712758E+04    0.48585E+04   -0.17284E+05  1872   0.907E+02
DAV:   2    -0.684527349374E+02   -0.49270E+04   -0.44892E+04  2520   0.207E+02
DAV:   3    -0.119026858957E+04   -0.11218E+04   -0.11160E+04  2088   0.109E+02
DAV:   4    -0.123644230901E+04   -0.46174E+02   -0.45951E+02  2052   0.291E+01
DAV:   5    -0.123763102884E+04   -0.11887E+01   -0.11863E+01  2340   0.433E+00    0.754E+01
RMM:   6    -0.122565791325E+04    0.11973E+02   -0.62444E+01  1657   0.702E+00    0.575E+01
RMM:   7    -0.121057671003E+04    0.15081E+02   -0.98899E+00  1651   0.322E+00    0.463E+01
RMM:   8    -0.118822780088E+04    0.22349E+02   -0.20113E+01  1603   0.513E+00    0.321E+01
RMM:   9    -0.117323026023E+04    0.14998E+02   -0.23043E+01  1587   0.544E+00    0.209E+01
RMM:  10    -0.116908583516E+04    0.41444E+01   -0.25222E+01  1587   0.565E+00    0.117E+01
RMM:  11    -0.116989617588E+04   -0.81034E+00   -0.23745E+00  1655   0.189E+00    0.628E+00
RMM:  12    -0.116940558764E+04    0.49059E+00   -0.43077E-01  1614   0.764E-01    0.345E+00
RMM:  13    -0.116927529062E+04    0.13030E+00   -0.35342E-01  1602   0.651E-01    0.173E+00
RMM:  14    -0.116924809769E+04    0.27193E-01   -0.13376E-01  1612   0.422E-01    0.874E-01
RMM:  15    -0.116925306667E+04   -0.49690E-02   -0.29292E-02  1656   0.202E-01    0.265E-01
RMM:  16    -0.116925204911E+04    0.10176E-02   -0.36558E-03  1640   0.737E-02    0.160E-01
RMM:  17    -0.116925232970E+04   -0.28059E-03   -0.67092E-04  1452   0.313E-02    0.950E-02
RMM:  18    -0.116925250336E+04   -0.17366E-03   -0.28441E-04  1161   0.232E-02    0.763E-02
RMM:  19    -0.116925258784E+04   -0.84480E-04   -0.60521E-04  1536   0.270E-02
   1 F= -.11762815E+04 E0= -.11762815E+04  d E =-.117628E+04  mag=     4.0000
       N       E                     dE             d eps       ncg     rms          rms(c)
DAV:   1    -0.116925058440E+04    0.19190E-02   -0.37648E-01  1764   0.101E+00    0.154E-01
RMM:   2    -0.116925165020E+04   -0.10658E-02   -0.12784E-02  1618   0.161E-01    0.157E-01
RMM:   3    -0.116925159897E+04    0.51228E-04   -0.76891E-04  1568   0.379E-02
   2 F= -.11762807E+04 E0= -.11762807E+04  d E =0.781755E-03  mag=     4.0000
       N       E                     dE             d eps       ncg     rms          rms(c)
DAV:   1    -0.116925255008E+04   -0.89988E-03   -0.13141E-01  1728   0.595E-01    0.881E-02
RMM:   2    -0.116925295368E+04   -0.40360E-03   -0.38818E-03  1609   0.946E-02    0.358E-02
RMM:   3    -0.116925296640E+04   -0.12715E-04   -0.19115E-04  1144   0.210E-02
   3 F= -.11762820E+04 E0= -.11762820E+04  d E =-.463275E-03  mag=     4.0000
