       N       E                     dE             d eps       ncg     rms          rms(c)
DAV:   1     0.479468695404E+04    0.47947E+04   -0.17149E+05  1824   0.927E+02
DAV:   2    -0.644702775652E+02   -0.48592E+04   -0.44091E+04  2464   0.209E+02
DAV:   3    -0.118182881952E+04   -0.11174E+04   -0.11119E+04  2016   0.110E+02
DAV:   4    -0.122805958075E+04   -0.46231E+02   -0.45978E+02  1984   0.296E+01
DAV:   5    -0.122921863316E+04   -0.11591E+01   -0.11561E+01  2240   0.428E+00    0.671E+01
RMM:   6    -0.121252594934E+04    0.16693E+02   -0.10040E+01  1573   0.359E+00    0.510E+01
RMM:   7    -0.118406745697E+04    0.28458E+02   -0.39579E+01  1553   0.735E+00    0.326E+01
RMM:   8    -0.116630743426E+04    0.17760E+02   -0.28613E+01  1541   0.696E+00    0.225E+01
RMM:   9    -0.116133404938E+04    0.49734E+01   -0.24857E+01  1557   0.659E+00    0.126E+01
RMM:  10    -0.116279854379E+04   -0.14645E+01   -0.58715E+00  1560   0.349E+00    0.776E+00
RMM:  11    -0.116237310131E+04    0.42544E+00   -0.86896E-01  1543   0.137E+00    0.529E+00
RMM:  12    -0.116208416539E+04    0.28894E+00   -0.14302E+00  1537   0.148E+00    0.916E-01
RMM:  13    -0.116211046378E+04   -0.26298E-01   -0.15845E-01  1590   0.634E-01    0.429E-01
RMM:  14    -0.116211475643E+04   -0.42926E-02   -0.26325E-02  1606   0.256E-01    0.275E-01
RMM:  15    -0.116211601145E+04   -0.12550E-02   -0.93424E-03  1705   0.139E-01    0.173E-01
RMM:  16    -0.116211689790E+04   -0.88646E-03   -0.22728E-03  1664   0.698E-02    0.127E-01
RMM:  17    -0.116211709093E+04   -0.19303E-03   -0.17589E-03  1551   0.538E-02    0.928E-02
RMM:  18    -0.116211716460E+04   -0.73669E-04   -0.45876E-04  1559   0.299E-02    0.556E-02
RMM:  19    -0.116211719605E+04   -0.31451E-04   -0.19665E-04  1567   0.180E-02    0.442E-02
RMM:  20    -0.116211720248E+04   -0.64297E-05   -0.63381E-05  1549   0.111E-02    0.245E-02
RMM:  21    -0.116211720023E+04    0.22528E-05   -0.19453E-05  1655   0.565E-03    0.223E-02
RMM:  22    -0.116211720355E+04   -0.33267E-05   -0.13341E-05  1533   0.457E-03    0.100E-02
RMM:  23    -0.116211720557E+04   -0.20173E-05   -0.89024E-06  1557   0.394E-03    0.593E-03
RMM:  24    -0.116211720327E+04    0.22983E-05   -0.27129E-06  1115   0.216E-03    0.302E-03
RMM:  25    -0.116211720235E+04    0.92454E-06   -0.80369E-07  1032   0.124E-03
   1 F= -.11621172E+04 E0= -.11621172E+04  d E =-.116212E+04  mag=     2.0001
       N       E                     dE             d eps       ncg     rms          rms(c)
DAV:   1    -0.116206829281E+04    0.48910E-01   -0.91986E+00  1664   0.421E+00    0.154E+00
RMM:   2    -0.116209835251E+04   -0.30060E-01   -0.31728E-01  1640   0.706E-01    0.144E+00
RMM:   3    -0.116210174357E+04   -0.33911E-02   -0.66117E-02  1707   0.295E-01    0.118E+00
RMM:   4    -0.116209936242E+04    0.23812E-02   -0.37048E-02  1598   0.220E-01    0.468E-01
RMM:   5    -0.116210066434E+04   -0.13019E-02   -0.69842E-03  1744   0.103E-01    0.205E-01
RMM:   6    -0.116210058422E+04    0.80121E-04   -0.12666E-03  1664   0.418E-02    0.152E-01
RMM:   7    -0.116210042383E+04    0.16038E-03   -0.92139E-04  1581   0.347E-02    0.820E-02
RMM:   8    -0.116210041764E+04    0.61988E-05   -0.31495E-04  1775   0.216E-02    0.543E-02
RMM:   9    -0.116210039730E+04    0.20333E-04   -0.14815E-04  1595   0.143E-02    0.290E-02
RMM:  10    -0.116210039648E+04    0.82415E-06   -0.50560E-05  1626   0.853E-03    0.143E-02
RMM:  11    -0.116210039390E+04    0.25742E-05   -0.21735E-05  1568   0.567E-03    0.779E-03
RMM:  12    -0.116210039431E+04   -0.40154E-06   -0.56622E-06  1394   0.315E-03
   2 F= -.11621004E+04 E0= -.11621004E+04  d E =0.168080E-01  mag=     2.0000
       N       E                     dE             d eps       ncg     rms          rms(c)
DAV:   1    -0.116211999798E+04   -0.19604E-01   -0.33597E+00  1792   0.256E+00    0.942E-01
RMM:   2    -0.116213003894E+04   -0.10041E-01   -0.10698E-01  1648   0.421E-01    0.854E-01
RMM:   3    -0.116213087271E+04   -0.83377E-03   -0.20678E-02  1632   0.174E-01    0.678E-01
RMM:   4    -0.116213009802E+04    0.77469E-03   -0.12963E-02  1592   0.132E-01    0.277E-01
RMM:   5    -0.116213054359E+04   -0.44557E-03   -0.22009E-03  1706   0.619E-02    0.127E-01
RMM:   6    -0.116213048003E+04    0.63562E-04   -0.51584E-04  1653   0.261E-02    0.986E-02
RMM:   7    -0.116213041677E+04    0.63260E-04   -0.31505E-04  1566   0.205E-02    0.571E-02
RMM:   8    -0.116213042407E+04   -0.73006E-05   -0.10746E-04  1794   0.124E-02    0.370E-02
RMM:   9    -0.116213041317E+04    0.10903E-04   -0.54487E-05  1564   0.854E-03    0.193E-02
RMM:  10    -0.116213041445E+04   -0.12852E-05   -0.23187E-05  1548   0.594E-03    0.939E-03
RMM:  11    -0.116213041253E+04    0.19279E-05   -0.76725E-06  1456   0.350E-03    0.504E-03
RMM:  12    -0.116213041260E+04   -0.69529E-07   -0.45921E-06  1362   0.258E-03
   3 F= -.11621304E+04 E0= -.11621304E+04  d E =-.132102E-01  mag=     2.0000
       N       E                     dE             d eps       ncg     rms          rms(c)
DAV:   1    -0.116212804588E+04    0.23666E-02   -0.16640E+00  1728   0.200E+00    0.596E-01
RMM:   2    -0.116213152571E+04   -0.34798E-02   -0.41937E-02  1609   0.285E-01    0.494E-01
RMM:   3    -0.116213114321E+04    0.38249E-03   -0.10209E-02  1612   0.124E-01    0.298E-01
RMM:   4    -0.116213111117E+04    0.32049E-04   -0.48338E-03  1634   0.824E-02    0.167E-01
RMM:   5    -0.116213112889E+04   -0.17727E-04   -0.75033E-04  1756   0.396E-02    0.103E-01
RMM:   6    -0.116213107597E+04    0.52923E-04   -0.33549E-04  1611   0.219E-02    0.607E-02
RMM:   7    -0.116213105606E+04    0.19912E-04   -0.17322E-04  1608   0.147E-02    0.311E-02
RMM:   8    -0.116213103832E+04    0.17734E-04   -0.10334E-04  1605   0.125E-02    0.232E-02
RMM:   9    -0.116213103636E+04    0.19648E-05   -0.25575E-05  1675   0.693E-03    0.159E-02
RMM:  10    -0.116213103331E+04    0.30511E-05   -0.71594E-06  1431   0.335E-03    0.109E-02
RMM:  11    -0.116213103335E+04   -0.41407E-07   -0.64311E-06  1442   0.302E-03
   4 F= -.11621310E+04 E0= -.11621310E+04  d E =-.620755E-03  mag=     2.0000
       N       E                     dE             d eps       ncg     rms          rms(c)
DAV:   1    -0.116213318320E+04   -0.21499E-02   -0.37474E-01  1696   0.950E-01    0.284E-01
RMM:   2    -0.116213397800E+04   -0.79479E-03   -0.95712E-03  1610   0.137E-01    0.233E-01
RMM:   3    -0.116213392352E+04    0.54479E-04   -0.23259E-03  1619   0.590E-02    0.140E-01
RMM:   4    -0.116213391459E+04    0.89269E-05   -0.10114E-03  1640   0.380E-02    0.787E-02
RMM:   5    -0.116213393076E+04   -0.16167E-04   -0.16386E-04  1757   0.185E-02    0.479E-02
RMM:   6    -0.116213392134E+04    0.94152E-05   -0.76551E-05  1582   0.103E-02    0.287E-02
RMM:   7    -0.116213391844E+04    0.28991E-05   -0.37135E-05  1571   0.681E-03    0.149E-02
RMM:   8    -0.116213391340E+04    0.50432E-05   -0.18974E-05  1590   0.553E-03    0.110E-02
RMM:   9    -0.116213391342E+04   -0.17644E-07   -0.60108E-06  1488   0.326E-03
   5 F= -.11621339E+04 E0= -.11621339E+04  d E =-.350082E-02  mag=     2.0000
       N       E                     dE             d eps       ncg     rms          rms(c)
DAV:   1    -0.116213587897E+04   -0.19656E-02   -0.57968E-01  1664   0.122E+00    0.200E-01
RMM:   2    -0.116213635155E+04   -0.47258E-03   -0.84014E-03  1555   0.155E-01    0.174E-01
RMM:   3    -0.116213606773E+04    0.28382E-03   -0.17961E-03  1577   0.669E-02    0.128E-01
RMM:   4    -0.116213582059E+04    0.24714E-03   -0.14965E-03  1563   0.505E-02    0.584E-02
RMM:   5    -0.116213583208E+04   -0.11492E-04   -0.32562E-04  1680   0.258E-02    0.450E-02
RMM:   6    -0.116213580644E+04    0.25643E-04   -0.52966E-05  1622   0.100E-02    0.350E-02
RMM:   7    -0.116213580159E+04    0.48517E-05   -0.57782E-05  1569   0.853E-03    0.140E-02
RMM:   8    -0.116213580099E+04    0.59585E-06   -0.24925E-05  1610   0.616E-03    0.876E-03
RMM:   9    -0.116213579968E+04    0.13158E-05   -0.43561E-06  1376   0.299E-03    0.636E-03
RMM:  10    -0.116213579865E+04    0.10228E-05   -0.25688E-06  1141   0.193E-03    0.343E-03
RMM:  11    -0.116213579856E+04    0.92361E-07   -0.10397E-06  1021   0.141E-03
   6 F= -.11621358E+04 E0= -.11621358E+04  d E =-.188514E-02  mag=     2.0000
       N       E                     dE             d eps       ncg     rms          rms(c)
DAV:   1    -0.116213586134E+04   -0.62684E-04   -0.13089E-02  1728   0.184E-01    0.301E-02
RMM:   2    -0.116213587214E+04   -0.10800E-04   -0.18810E-04  1556   0.232E-02    0.260E-02
RMM:   3    -0.116213586715E+04    0.49907E-05   -0.39699E-05  1574   0.995E-03    0.193E-02
RMM:   4    -0.116213586315E+04    0.39931E-05   -0.31072E-05  1560   0.737E-03    0.870E-03
RMM:   5    -0.116213586389E+04   -0.73821E-06   -0.72160E-06  1536   0.382E-03
   7 F= -.11621359E+04 E0= -.11621359E+04  d E =-.195047E-02  mag=     2.0000
       N       E                     dE             d eps       ncg     rms          rms(c)
DAV:   1    -0.116213732480E+04   -0.14616E-02   -0.37558E-01  1600   0.985E-01    0.130E-01
RMM:   2    -0.116213769919E+04   -0.37439E-03   -0.58578E-03  1587   0.128E-01    0.119E-01
RMM:   3    -0.116213765925E+04    0.39931E-04   -0.13051E-03  1612   0.556E-02    0.989E-02
RMM:   4    -0.116213754268E+04    0.11657E-03   -0.89790E-04  1594   0.394E-02    0.413E-02
RMM:   5    -0.116213755703E+04   -0.14348E-04   -0.17808E-04  1726   0.189E-02    0.314E-02
RMM:   6    -0.116213754972E+04    0.73122E-05   -0.27779E-05  1682   0.727E-03    0.253E-02
RMM:   7    -0.116213754758E+04    0.21372E-05   -0.29674E-05  1569   0.628E-03    0.890E-03
RMM:   8    -0.116213754812E+04   -0.54190E-06   -0.11137E-05  1519   0.390E-03    0.591E-03
RMM:   9    -0.116213754749E+04    0.62633E-06   -0.18430E-06  1068   0.189E-03
   8 F= -.11621375E+04 E0= -.11621375E+04  d E =-.168360E-02  mag=     2.0000
