       N       E                     dE             d eps       ncg     rms          rms(c)
DAV:   1     0.462817305770E+04    0.46282E+04   -0.18007E+05  1920   0.950E+02
DAV:   2    -0.695893818208E+02   -0.46978E+04   -0.42844E+04  2400   0.208E+02
DAV:   3    -0.119964900255E+04   -0.11301E+04   -0.11254E+04  2016   0.111E+02
DAV:   4    -0.124660925164E+04   -0.46960E+02   -0.46656E+02  1920   0.298E+01
DAV:   5    -0.124781756195E+04   -0.12083E+01   -0.12048E+01  2336   0.441E+00    0.705E+01
RMM:   6    -0.123022183221E+04    0.17596E+02   -0.98658E+00  1584   0.378E+00    0.557E+01
RMM:   7    -0.119822700926E+04    0.31995E+02   -0.57850E+01  1589   0.910E+00    0.330E+01
RMM:   8    -0.118482180620E+04    0.13405E+02   -0.20808E+01  1538   0.621E+00    0.249E+01
RMM:   9    -0.118066356400E+04    0.41582E+01   -0.21856E+01  1548   0.605E+00    0.161E+01
RMM:  10    -0.118084561803E+04   -0.18205E+00   -0.65835E+00  1641   0.355E+00    0.123E+01
RMM:  11    -0.118167522798E+04   -0.82961E+00   -0.27594E+00  1581   0.229E+00    0.803E+00
RMM:  12    -0.118029063382E+04    0.13846E+01   -0.89893E-01  1563   0.128E+00    0.454E+00
RMM:  13    -0.117999925132E+04    0.29138E+00   -0.74057E-01  1555   0.109E+00    0.241E+00
RMM:  14    -0.117997155322E+04    0.27698E-01   -0.20589E-01  1551   0.626E-01    0.172E+00
RMM:  15    -0.117997288374E+04   -0.13305E-02   -0.36166E-02  1687   0.257E-01    0.196E+00
RMM:  16    -0.117996171263E+04    0.11171E-01   -0.29889E-02  1577   0.208E-01    0.210E+00
RMM:  17    -0.117996356594E+04   -0.18533E-02   -0.90923E-03  1690   0.118E-01    0.241E+00
RMM:  18    -0.117997124651E+04   -0.76806E-02   -0.19421E-02  1577   0.172E-01    0.301E+00
RMM:  19    -0.117997297239E+04   -0.17259E-02   -0.44112E-03  1610   0.808E-02    0.321E+00
RMM:  20    -0.117997940309E+04   -0.64307E-02   -0.49598E-03  1617   0.854E-02    0.383E+00
RMM:  21    -0.117998831858E+04   -0.89155E-02   -0.12285E-02  1817   0.129E-01    0.492E+00
RMM:  22    -0.117998892129E+04   -0.60271E-03   -0.20503E-03  1735   0.487E-02    0.510E+00
RMM:  23    -0.117998847785E+04    0.44344E-03   -0.90132E-04  1726   0.204E-02    0.512E+00
RMM:  24    -0.117999014743E+04   -0.16696E-02   -0.10634E-03  1592   0.303E-02    0.551E+00
RMM:  25    -0.117999123584E+04   -0.10884E-02   -0.89320E-04  1602   0.261E-02    0.515E+00
RMM:  26    -0.117998945007E+04    0.17858E-02   -0.25461E-03  2146   0.531E-02    0.434E+00
RMM:  27    -0.117997708684E+04    0.12363E-01   -0.14699E-02  2548   0.135E-01    0.280E+00
RMM:  28    -0.117997623307E+04    0.85377E-03   -0.24825E-03  2243   0.536E-02    0.189E+00
RMM:  29    -0.117997466542E+04    0.15677E-02   -0.11243E-02  2533   0.117E-01    0.831E-01
RMM:  30    -0.117997562847E+04   -0.96305E-03   -0.18772E-03  2157   0.488E-02    0.920E-01
RMM:  31    -0.117997594556E+04   -0.31708E-03   -0.28973E-03  2196   0.569E-02    0.137E+00
RMM:  32    -0.117997568752E+04    0.25803E-03   -0.94121E-04  1689   0.272E-02    0.116E+00
RMM:  33    -0.117997575404E+04   -0.66516E-04   -0.41032E-04  1602   0.133E-02    0.103E+00
RMM:  34    -0.117997581853E+04   -0.64488E-04   -0.37464E-04  1680   0.673E-03    0.108E+00
RMM:  35    -0.117997583832E+04   -0.19793E-04   -0.34282E-04  1598   0.492E-03    0.104E+00
RMM:  36    -0.117997588051E+04   -0.42194E-04   -0.48993E-04  2223   0.168E-02    0.883E-01
RMM:  37    -0.117997578044E+04    0.10007E-03   -0.76001E-04  2465   0.272E-02    0.466E-01
RMM:  38    -0.117997582791E+04   -0.47473E-04   -0.66728E-04  2439   0.252E-02    0.130E-01
RMM:  39    -0.117997586332E+04   -0.35409E-04   -0.24041E-04  1634   0.779E-03    0.138E-01
RMM:  40    -0.117997588862E+04   -0.25297E-04   -0.22566E-04  1620   0.527E-03    0.102E-01
RMM:  41    -0.117997590961E+04   -0.20995E-04   -0.20884E-04  1424   0.373E-03    0.113E-01
RMM:  42    -0.117997592816E+04   -0.18547E-04   -0.18532E-04  1045   0.203E-03    0.150E-01
RMM:  43    -0.117997594614E+04   -0.17979E-04   -0.16672E-04  1058   0.213E-03    0.155E-01
RMM:  44    -0.117997596216E+04   -0.16019E-04   -0.15626E-04  1028   0.145E-03    0.176E-01
RMM:  45    -0.117997597645E+04   -0.14288E-04   -0.14128E-04  1008   0.953E-04    0.216E-01
RMM:  46    -0.117997598995E+04   -0.13505E-04   -0.13300E-04   749   0.702E-04    0.245E-01
RMM:  47    -0.117997600221E+04   -0.12261E-04   -0.12055E-04   593   0.609E-04    0.276E-01
RMM:  48    -0.117997601368E+04   -0.11467E-04   -0.11229E-04   585   0.599E-04    0.305E-01
RMM:  49    -0.117997602413E+04   -0.10451E-04   -0.10228E-04   671   0.602E-04    0.333E-01
RMM:  50    -0.117997603381E+04   -0.96757E-05   -0.95261E-05   695   0.584E-04    0.361E-01
RMM:  51    -0.117997604228E+04   -0.84747E-05   -0.86476E-05  1019   0.134E-03    0.385E-01
RMM:  52    -0.117997605017E+04   -0.78886E-05   -0.82279E-05   999   0.109E-03    0.405E-01
RMM:  53    -0.117997605619E+04   -0.60208E-05   -0.74492E-05  1071   0.192E-03    0.406E-01
RMM:  54    -0.117997606371E+04   -0.75144E-05   -0.69725E-05   997   0.927E-04    0.449E-01
RMM:  55    -0.117997606980E+04   -0.60890E-05   -0.62746E-05   854   0.701E-04    0.486E-01
RMM:  56    -0.117997607810E+04   -0.83071E-05   -0.65661E-05  1430   0.320E-03    0.545E-01
RMM:  57    -0.117997608415E+04   -0.60429E-05   -0.56695E-05  1007   0.134E-03    0.604E-01
RMM:  58    -0.117997609017E+04   -0.60189E-05   -0.51897E-05  1000   0.959E-04    0.652E-01
RMM:  59    -0.117997609533E+04   -0.51687E-05   -0.46984E-05   884   0.673E-04    0.689E-01
RMM:  60    -0.117997609971E+04   -0.43741E-05   -0.43602E-05   567   0.476E-04    0.712E-01
RMM:  61    -0.117997610429E+04   -0.45858E-05   -0.39528E-05   991   0.926E-04    0.758E-01
RMM:  62    -0.117997610801E+04   -0.37209E-05   -0.36454E-05   747   0.554E-04    0.785E-01
RMM:  63    -0.117997611130E+04   -0.32892E-05   -0.32550E-05   500   0.424E-04    0.807E-01
RMM:  64    -0.117997611441E+04   -0.31112E-05   -0.29983E-05   475   0.408E-04    0.831E-01
RMM:  65    -0.117997611713E+04   -0.27170E-05   -0.26635E-05   456   0.395E-04    0.853E-01
RMM:  66    -0.117997612028E+04   -0.31498E-05   -0.24745E-05   609   0.469E-04    0.877E-01
RMM:  67    -0.117997612251E+04   -0.22326E-05   -0.21952E-05   459   0.388E-04    0.896E-01
RMM:  68    -0.117997612457E+04   -0.20553E-05   -0.20219E-05   447   0.377E-04    0.915E-01
RMM:  69    -0.117997612641E+04   -0.18411E-05   -0.18019E-05   442   0.370E-04    0.931E-01
RMM:  70    -0.117997612811E+04   -0.16958E-05   -0.16661E-05   435   0.365E-04    0.949E-01
RMM:  71    -0.117997613013E+04   -0.20280E-05   -0.14986E-05   586   0.412E-04    0.969E-01
RMM:  72    -0.117997613142E+04   -0.12816E-05   -0.13836E-05   444   0.351E-04    0.983E-01
RMM:  73    -0.117997613261E+04   -0.11953E-05   -0.12261E-05   452   0.348E-04    0.993E-01
RMM:  74    -0.117997613375E+04   -0.11341E-05   -0.11414E-05   446   0.348E-04    0.100E+00
RMM:  75    -0.117997613473E+04   -0.98682E-06   -0.10112E-05   438   0.345E-04    0.102E+00
RMM:  76    -0.117997613610E+04   -0.13657E-05   -0.96035E-06   578   0.390E-04    0.104E+00
RMM:  77    -0.117997613687E+04   -0.77071E-06   -0.84724E-06   430   0.320E-04
   1 F= -.11872892E+04 E0= -.11872891E+04  d E =-.118729E+04  mag=    -0.9991
       N       E                     dE             d eps       ncg     rms          rms(c)
DAV:   1    -0.117997398090E+04    0.21552E-02   -0.26343E-01  1600   0.870E-01    0.128E+00
RMM:   2    -0.117997464547E+04   -0.66457E-03   -0.76862E-03  1659   0.140E-01    0.968E-01
RMM:   3    -0.117997458338E+04    0.62087E-04   -0.16286E-03  1638   0.617E-02    0.604E-01
RMM:   4    -0.117997462250E+04   -0.39115E-04   -0.41882E-04  2071   0.276E-02    0.612E-01
RMM:   5    -0.117997474209E+04   -0.11960E-03   -0.24112E-04  1577   0.198E-02    0.742E-01
RMM:   6    -0.117997702030E+04   -0.22782E-02   -0.80163E-03  1575   0.106E-01    0.104E+00
RMM:   7    -0.117997850983E+04   -0.14895E-02   -0.34367E-03  1574   0.759E-02    0.111E+00
RMM:   8    -0.117997994262E+04   -0.14328E-02   -0.15775E-03  1750   0.528E-02    0.130E+00
RMM:   9    -0.117998151137E+04   -0.15688E-02   -0.12025E-03  1646   0.449E-02    0.147E+00
RMM:  10    -0.117998042093E+04    0.10904E-02   -0.22376E-04  1549   0.207E-02    0.147E+00
RMM:  11    -0.117997986016E+04    0.56077E-03   -0.13488E-04  1594   0.143E-02    0.149E+00
RMM:  12    -0.117998056359E+04   -0.70343E-03   -0.10076E-04  1575   0.132E-02    0.156E+00
RMM:  13    -0.117998142270E+04   -0.85911E-03   -0.23773E-04  1672   0.179E-02    0.164E+00
RMM:  14    -0.117998178367E+04   -0.36097E-03   -0.78688E-05  1764   0.113E-02    0.168E+00
RMM:  15    -0.117998191725E+04   -0.13359E-03   -0.19803E-05  1840   0.538E-03    0.170E+00
RMM:  16    -0.117998178701E+04    0.13024E-03   -0.31628E-06  1188   0.265E-03    0.168E+00
RMM:  17    -0.117998168995E+04    0.97068E-04   -0.21364E-06  1084   0.194E-03    0.167E+00
RMM:  18    -0.117998125230E+04    0.43765E-03   -0.35702E-05  2048   0.682E-03    0.162E+00
RMM:  19    -0.117997948143E+04    0.17709E-02   -0.61049E-04  2590   0.285E-02    0.143E+00
RMM:  20    -0.117997731745E+04    0.21640E-02   -0.15196E-03  2587   0.449E-02    0.111E+00
RMM:  21    -0.117997596754E+04    0.13499E-02   -0.12838E-03  2589   0.408E-02    0.820E-01
RMM:  22    -0.117997527555E+04    0.69199E-03   -0.71904E-04  2589   0.302E-02    0.604E-01
RMM:  23    -0.117997504670E+04    0.22885E-03   -0.17529E-04  2498   0.145E-02    0.504E-01
RMM:  24    -0.117997486147E+04    0.18523E-03   -0.11895E-04  2493   0.124E-02    0.405E-01
RMM:  25    -0.117997470966E+04    0.15181E-03   -0.14691E-04  2506   0.138E-02    0.285E-01
RMM:  26    -0.117997461037E+04    0.99286E-04   -0.13938E-04  2498   0.135E-02    0.174E-01
RMM:  27    -0.117997455004E+04    0.60332E-04   -0.18617E-04  2560   0.154E-02    0.593E-02
RMM:  28    -0.117997454388E+04    0.61593E-05   -0.54687E-05  2196   0.811E-03    0.550E-03
RMM:  29    -0.117997454432E+04   -0.43491E-06   -0.32900E-06  1122   0.236E-03
   2 F= -.11872887E+04 E0= -.11872887E+04  d E =0.428007E-03  mag=    -0.9997
       N       E                     dE             d eps       ncg     rms          rms(c)
DAV:   1    -0.117997596215E+04   -0.14183E-02   -0.89657E-02  1664   0.507E-01    0.104E-01
RMM:   2    -0.117997615180E+04   -0.18965E-03   -0.23194E-03  1633   0.795E-02    0.969E-02
RMM:   3    -0.117997616054E+04   -0.87334E-05   -0.43945E-04  1682   0.331E-02    0.792E-02
RMM:   4    -0.117997611317E+04    0.47362E-04   -0.15247E-04  1605   0.179E-02    0.476E-02
RMM:   5    -0.117997610501E+04    0.81688E-05   -0.90039E-05  1587   0.126E-02    0.368E-02
RMM:   6    -0.117997610205E+04    0.29501E-05   -0.14570E-05  1569   0.597E-03    0.234E-02
RMM:   7    -0.117997610255E+04   -0.49089E-06   -0.78519E-06  1479   0.355E-03
   3 F= -.11872896E+04 E0= -.11872896E+04  d E =-.451127E-03  mag=    -0.9996
       N       E                     dE             d eps       ncg     rms          rms(c)
DAV:   1    -0.117997576045E+04    0.34160E-03   -0.22578E-01  1824   0.727E-01    0.147E-01
RMM:   2    -0.117997617878E+04   -0.41833E-03   -0.53707E-03  1723   0.105E-01    0.106E-01
RMM:   3    -0.117997620036E+04   -0.21582E-04   -0.10018E-03  1630   0.440E-02    0.779E-02
RMM:   4    -0.117997617667E+04    0.23691E-04   -0.22949E-04  1686   0.214E-02    0.601E-02
RMM:   5    -0.117997617420E+04    0.24738E-05   -0.11762E-04  1543   0.149E-02    0.410E-02
RMM:   6    -0.117997618059E+04   -0.63937E-05   -0.28961E-05  1642   0.797E-03    0.217E-02
RMM:   7    -0.117997618272E+04   -0.21290E-05   -0.10592E-05  1560   0.450E-03    0.135E-02
RMM:   8    -0.117997618347E+04   -0.74619E-06   -0.60026E-06  1259   0.287E-03
   4 F= -.11872902E+04 E0= -.11872901E+04  d E =-.528002E-03  mag=    -0.9997
       N       E                     dE             d eps       ncg     rms          rms(c)
DAV:   1    -0.117997621183E+04   -0.29108E-04   -0.85950E-04  1760   0.449E-02    0.816E-03
RMM:   2    -0.117997621341E+04   -0.15767E-05   -0.18513E-05  1697   0.632E-03    0.695E-03
RMM:   3    -0.117997621331E+04    0.10149E-06   -0.33361E-06  1110   0.266E-03
   5 F= -.11872902E+04 E0= -.11872901E+04  d E =-.529913E-03  mag=    -0.9997
       N       E                     dE             d eps       ncg     rms          rms(c)
DAV:   1    -0.117997632262E+04   -0.10922E-03   -0.99285E-02  1664   0.455E-01    0.724E-02
RMM:   2    -0.117997644813E+04   -0.12551E-03   -0.16418E-03  1656   0.583E-02    0.570E-02
RMM:   3    -0.117997645450E+04   -0.63647E-05   -0.26945E-04  1616   0.245E-02    0.429E-02
RMM:   4    -0.117997645711E+04   -0.26113E-05   -0.95767E-05  1596   0.141E-02    0.227E-02
RMM:   5    -0.117997646011E+04   -0.29975E-05   -0.17547E-05  1701   0.618E-03    0.178E-02
RMM:   6    -0.117997646313E+04   -0.30259E-05   -0.68185E-06  1443   0.349E-03    0.944E-03
RMM:   7    -0.117997646369E+04   -0.55450E-06   -0.15201E-06  1049   0.180E-03
   6 F= -.11872906E+04 E0= -.11872906E+04  d E =-.438656E-03  mag=    -0.9997
