       N       E                     dE             d eps       ncg     rms          rms(c)
DAV:   1     0.477213784793E+04    0.47721E+04   -0.17478E+05  1856   0.939E+02
DAV:   2    -0.635338841792E+02   -0.48357E+04   -0.44071E+04  2464   0.210E+02
DAV:   3    -0.119151766357E+04   -0.11280E+04   -0.11229E+04  2048   0.111E+02
DAV:   4    -0.123771143690E+04   -0.46194E+02   -0.45943E+02  1920   0.297E+01
DAV:   5    -0.123886144621E+04   -0.11500E+01   -0.11473E+01  2272   0.432E+00    0.781E+01
RMM:   6    -0.122568017236E+04    0.13181E+02   -0.86061E+00  1567   0.349E+00    0.596E+01
RMM:   7    -0.118926491513E+04    0.36415E+02   -0.72029E+01  1601   0.993E+00    0.311E+01
RMM:   8    -0.117959460013E+04    0.96703E+01   -0.17414E+01  1569   0.585E+00    0.249E+01
RMM:   9    -0.117539641857E+04    0.41982E+01   -0.29699E+01  1586   0.684E+00    0.171E+01
RMM:  10    -0.117541858363E+04   -0.22165E-01   -0.73190E+00  1600   0.389E+00    0.110E+01
RMM:  11    -0.117553604325E+04   -0.11746E+00   -0.14339E+00  1610   0.156E+00    0.762E+00
RMM:  12    -0.117510003198E+04    0.43601E+00   -0.73203E-01  1577   0.106E+00    0.398E+00
RMM:  13    -0.117484912859E+04    0.25090E+00   -0.69492E-01  1543   0.105E+00    0.232E+00
RMM:  14    -0.117479430130E+04    0.54827E-01   -0.14770E-01  1603   0.550E-01    0.102E+00
RMM:  15    -0.117479544213E+04   -0.11408E-02   -0.60361E-02  1566   0.331E-01    0.645E-01
RMM:  16    -0.117479534471E+04    0.97425E-04   -0.11312E-02  1691   0.162E-01    0.512E-01
RMM:  17    -0.117479369691E+04    0.16478E-02   -0.43522E-03  1866   0.868E-02    0.414E-01
RMM:  18    -0.117479321568E+04    0.48123E-03   -0.14015E-03  1574   0.455E-02    0.269E-01
RMM:  19    -0.117479260980E+04    0.60587E-03   -0.20341E-03  1661   0.516E-02    0.946E-02
RMM:  20    -0.117479262877E+04   -0.18963E-04   -0.48783E-04  1647   0.293E-02    0.700E-02
RMM:  21    -0.117479260459E+04    0.24177E-04   -0.12964E-04  1842   0.148E-02    0.440E-02
RMM:  22    -0.117479260142E+04    0.31725E-05   -0.51268E-05  1621   0.949E-03    0.270E-02
RMM:  23    -0.117479259315E+04    0.82724E-05   -0.25240E-05  1551   0.649E-03    0.218E-02
RMM:  24    -0.117479258952E+04    0.36267E-05   -0.88919E-06  1551   0.415E-03    0.935E-03
RMM:  25    -0.117479258915E+04    0.36714E-06   -0.51086E-06  1395   0.293E-03
   1 F= -.11819465E+04 E0= -.11819465E+04  d E =-.118195E+04  mag=    -0.0000
       N       E                     dE             d eps       ncg     rms          rms(c)
DAV:   1    -0.117478964967E+04    0.29399E-02   -0.43030E-01  1792   0.112E+00    0.230E-01
RMM:   2    -0.117479109876E+04   -0.14491E-02   -0.16637E-02  1733   0.189E-01    0.221E-01
RMM:   3    -0.117479131073E+04   -0.21198E-03   -0.37100E-03  1837   0.810E-02    0.213E-01
RMM:   4    -0.117479107282E+04    0.23791E-03   -0.91944E-04  1676   0.415E-02    0.125E-01
RMM:   5    -0.117479109529E+04   -0.22469E-04   -0.84220E-04  1570   0.370E-02    0.454E-02
RMM:   6    -0.117479103995E+04    0.55338E-04   -0.10764E-04  1565   0.159E-02    0.341E-02
RMM:   7    -0.117479103410E+04    0.58499E-05   -0.91899E-05  1540   0.108E-02    0.155E-02
RMM:   8    -0.117479102904E+04    0.50677E-05   -0.12384E-05  1567   0.542E-03    0.103E-02
RMM:   9    -0.117479102951E+04   -0.47366E-06   -0.28154E-05  1541   0.628E-03    0.658E-03
RMM:  10    -0.117479102803E+04    0.14741E-05   -0.36928E-06  1350   0.277E-03    0.465E-03
RMM:  11    -0.117479102768E+04    0.35472E-06   -0.23194E-06  1099   0.176E-03
   2 F= -.11819459E+04 E0= -.11819459E+04  d E =0.670112E-03  mag=    -0.0000
       N       E                     dE             d eps       ncg     rms          rms(c)
DAV:   1    -0.117479261858E+04   -0.15905E-02   -0.14688E-01  1792   0.652E-01    0.135E-01
RMM:   2    -0.117479299546E+04   -0.37688E-03   -0.45696E-03  1690   0.105E-01    0.128E-01
RMM:   3    -0.117479302534E+04   -0.29878E-04   -0.96075E-04  1694   0.443E-02    0.120E-01
RMM:   4    -0.117479294404E+04    0.81298E-04   -0.39905E-04  1608   0.275E-02    0.526E-02
RMM:   5    -0.117479295752E+04   -0.13480E-04   -0.16687E-04  1632   0.174E-02    0.260E-02
RMM:   6    -0.117479294126E+04    0.16262E-04   -0.36951E-05  1582   0.800E-03    0.167E-02
RMM:   7    -0.117479294153E+04   -0.27420E-06   -0.11026E-05  1654   0.425E-03    0.759E-03
RMM:   8    -0.117479294065E+04    0.88656E-06   -0.49938E-06  1426   0.277E-03
   3 F= -.11819473E+04 E0= -.11819473E+04  d E =-.722111E-03  mag=    -0.0000
       N       E                     dE             d eps       ncg     rms          rms(c)
DAV:   1    -0.117479203994E+04    0.90160E-03   -0.30026E-01  2016   0.934E-01    0.138E-01
RMM:   2    -0.117479273492E+04   -0.69498E-03   -0.84633E-03  1699   0.142E-01    0.122E-01
RMM:   3    -0.117479279065E+04   -0.55732E-04   -0.18586E-03  1666   0.607E-02    0.102E-01
RMM:   4    -0.117479272343E+04    0.67223E-04   -0.75180E-04  1611   0.368E-02    0.428E-02
RMM:   5    -0.117479274338E+04   -0.19955E-04   -0.18618E-04  1744   0.187E-02    0.295E-02
RMM:   6    -0.117479272339E+04    0.19987E-04   -0.54298E-05  1554   0.895E-03    0.150E-02
RMM:   7    -0.117479272520E+04   -0.18081E-05   -0.97895E-06  1610   0.444E-03    0.968E-03
RMM:   8    -0.117479272305E+04    0.21511E-05   -0.92154E-06  1513   0.364E-03    0.508E-03
RMM:   9    -0.117479272309E+04   -0.40818E-07   -0.37799E-06  1220   0.243E-03
   4 F= -.11819476E+04 E0= -.11819476E+04  d E =-.334671E-03  mag=     0.0000
       N       E                     dE             d eps       ncg     rms          rms(c)
DAV:   1    -0.117479307236E+04   -0.34931E-03   -0.46192E-02  1792   0.367E-01    0.544E-02
RMM:   2    -0.117479317893E+04   -0.10657E-03   -0.13022E-03  1700   0.558E-02    0.482E-02
RMM:   3    -0.117479318664E+04   -0.77046E-05   -0.28418E-04  1658   0.238E-02    0.403E-02
RMM:   4    -0.117479317412E+04    0.12518E-04   -0.11340E-04  1605   0.144E-02    0.169E-02
RMM:   5    -0.117479317688E+04   -0.27648E-05   -0.30335E-05  1678   0.748E-03    0.114E-02
RMM:   6    -0.117479317376E+04    0.31245E-05   -0.88282E-06  1491   0.361E-03    0.583E-03
RMM:   7    -0.117479317392E+04   -0.16593E-06   -0.15103E-06  1018   0.178E-03
   5 F= -.11819478E+04 E0= -.11819478E+04  d E =-.568488E-03  mag=    -0.0000
