       N       E                     dE             d eps       ncg     rms          rms(c)
DAV:   1     0.506832276027E+04    0.50683E+04   -0.18026E+05  1824   0.967E+02
DAV:   2    -0.129673703605E+01   -0.50696E+04   -0.46638E+04  2464   0.219E+02
DAV:   3    -0.120176705850E+04   -0.12005E+04   -0.11931E+04  1888   0.116E+02
DAV:   4    -0.125429296639E+04   -0.52526E+02   -0.52146E+02  1920   0.328E+01
DAV:   5    -0.125563884249E+04   -0.13459E+01   -0.13416E+01  2272   0.485E+00    0.816E+01
RMM:   6    -0.125150745630E+04    0.41314E+01   -0.11360E+02  1755   0.120E+01    0.803E+01
RMM:   7    -0.122422066947E+04    0.27287E+02   -0.12694E+01  1596   0.477E+00    0.512E+01
RMM:   8    -0.121015887740E+04    0.14062E+02   -0.10142E+01  1571   0.421E+00    0.411E+01
RMM:   9    -0.119794703589E+04    0.12212E+02   -0.95569E+00  1627   0.426E+00    0.327E+01
RMM:  10    -0.118063853166E+04    0.17309E+02   -0.33477E+01  1881   0.725E+00    0.211E+01
RMM:  11    -0.117911833612E+04    0.15202E+01   -0.76155E+00  1576   0.384E+00    0.148E+01
RMM:  12    -0.118032900158E+04   -0.12107E+01   -0.50888E+00  1551   0.305E+00    0.785E+00
RMM:  13    -0.117979000248E+04    0.53900E+00   -0.98590E-01  1577   0.149E+00    0.578E+00
RMM:  14    -0.117960311211E+04    0.18689E+00   -0.55022E-01  1588   0.104E+00    0.311E+00
RMM:  15    -0.117960934319E+04   -0.62311E-02   -0.18942E-01  1562   0.627E-01    0.208E+00
RMM:  16    -0.117962645555E+04   -0.17112E-01   -0.45341E-02  1727   0.348E-01    0.122E+00
RMM:  17    -0.117963069989E+04   -0.42443E-02   -0.31975E-02  1562   0.241E-01    0.216E+00
RMM:  18    -0.117962830567E+04    0.23942E-02   -0.56130E-03  1653   0.129E-01    0.245E+00
RMM:  19    -0.117962592930E+04    0.23764E-02   -0.34610E-03  1651   0.839E-02    0.220E+00
RMM:  20    -0.117962548106E+04    0.44825E-03   -0.34518E-03  1708   0.695E-02    0.168E+00
RMM:  21    -0.117962648420E+04   -0.10031E-02   -0.49286E-03  1814   0.923E-02    0.499E-01
RMM:  22    -0.117962817173E+04   -0.16875E-02   -0.84271E-04  1619   0.513E-02    0.313E-01
RMM:  23    -0.117962871197E+04   -0.54024E-03   -0.14316E-03  1740   0.491E-02    0.253E-01
RMM:  24    -0.117962907586E+04   -0.36389E-03   -0.22333E-04  1607   0.270E-02    0.222E-01
RMM:  25    -0.117962903635E+04    0.39503E-04   -0.12863E-04  1649   0.162E-02    0.140E-01
RMM:  26    -0.117962908786E+04   -0.51502E-04   -0.10645E-04  1776   0.130E-02    0.736E-02
RMM:  27    -0.117962910966E+04   -0.21800E-04   -0.27514E-05  1627   0.802E-03    0.552E-02
RMM:  28    -0.117962910776E+04    0.18986E-05   -0.14903E-05  1619   0.536E-03    0.282E-02
RMM:  29    -0.117962911007E+04   -0.23079E-05   -0.36097E-06  1250   0.302E-03    0.192E-02
RMM:  30    -0.117962911035E+04   -0.28311E-06   -0.41057E-06  1212   0.254E-03
   1 F= -.11867362E+04 E0= -.11867222E+04  d E =-.118674E+04  mag=     4.0386
       N       E                     dE             d eps       ncg     rms          rms(c)
DAV:   1    -0.117962837158E+04    0.73849E-03   -0.24044E-01  1600   0.881E-01    0.493E-01
RMM:   2    -0.117963000932E+04   -0.16377E-02   -0.73945E-03  1747   0.141E-01    0.118E+00
RMM:   3    -0.117962804232E+04    0.19670E-02   -0.22837E-03  1885   0.841E-02    0.330E-01
RMM:   4    -0.117962894548E+04   -0.90315E-03   -0.57937E-04  1854   0.429E-02    0.256E-01
RMM:   5    -0.117962882952E+04    0.11596E-03   -0.20001E-04  1635   0.200E-02    0.118E-01
RMM:   6    -0.117962884366E+04   -0.14139E-04   -0.10944E-04  1665   0.136E-02    0.503E-02
RMM:   7    -0.117962886257E+04   -0.18905E-04   -0.37598E-05  1631   0.963E-03    0.780E-02
RMM:   8    -0.117962887801E+04   -0.15445E-04   -0.14485E-05  1606   0.643E-03    0.131E-01
RMM:   9    -0.117962885712E+04    0.20891E-04   -0.61617E-06  1341   0.435E-03    0.968E-02
RMM:  10    -0.117962886480E+04   -0.76802E-05   -0.63251E-06  1427   0.348E-03    0.638E-02
RMM:  11    -0.117962886925E+04   -0.44511E-05   -0.36828E-06  1190   0.254E-03    0.995E-03
RMM:  12    -0.117962887572E+04   -0.64674E-05   -0.15122E-06  1057   0.225E-03    0.423E-03
RMM:  13    -0.117962887640E+04   -0.68247E-06   -0.86771E-07  1013   0.139E-03
   2 F= -.11867366E+04 E0= -.11867225E+04  d E =-.340322E-03  mag=     4.0199
       N       E                     dE             d eps       ncg     rms          rms(c)
DAV:   1    -0.117962923979E+04   -0.36408E-03   -0.34003E-02  1664   0.330E-01    0.186E-01
RMM:   2    -0.117962946704E+04   -0.22725E-03   -0.93542E-04  1728   0.516E-02    0.462E-01
RMM:   3    -0.117962912703E+04    0.34001E-03   -0.28486E-04  1833   0.312E-02    0.128E-01
RMM:   4    -0.117962930309E+04   -0.17606E-03   -0.76640E-05  1780   0.162E-02    0.944E-02
RMM:   5    -0.117962928539E+04    0.17699E-04   -0.30074E-05  1632   0.778E-03    0.387E-02
RMM:   6    -0.117962928707E+04   -0.16779E-05   -0.14064E-05  1665   0.492E-03    0.185E-02
RMM:   7    -0.117962928890E+04   -0.18318E-05   -0.46608E-06  1327   0.343E-03    0.276E-02
RMM:   8    -0.117962929076E+04   -0.18673E-05   -0.23216E-06  1082   0.247E-03    0.470E-02
RMM:   9    -0.117962928792E+04    0.28410E-05   -0.97530E-07  1033   0.165E-03    0.366E-02
RMM:  10    -0.117962928815E+04   -0.22617E-06   -0.11484E-06  1042   0.134E-03
   3 F= -.11867368E+04 E0= -.11867227E+04  d E =-.536588E-03  mag=     4.0266
