       N       E                     dE             d eps       ncg     rms          rms(c)
DAV:   1     0.490332624058E+04    0.49033E+04   -0.17397E+05  1872   0.913E+02
DAV:   2    -0.506719487015E+02   -0.49540E+04   -0.45209E+04  2520   0.207E+02
DAV:   3    -0.119117646232E+04   -0.11405E+04   -0.11356E+04  2124   0.111E+02
DAV:   4    -0.123647270411E+04   -0.45296E+02   -0.45065E+02  2052   0.290E+01
DAV:   5    -0.123765843984E+04   -0.11857E+01   -0.11829E+01  2340   0.441E+00    0.698E+01
RMM:   6    -0.122183097573E+04    0.15827E+02   -0.26408E+01  1703   0.474E+00    0.552E+01
RMM:   7    -0.120275942398E+04    0.19072E+02   -0.12772E+01  1611   0.404E+00    0.435E+01
RMM:   8    -0.117556760413E+04    0.27192E+02   -0.47757E+01  1589   0.781E+00    0.292E+01
RMM:   9    -0.117196020624E+04    0.36074E+01   -0.18503E+01  1667   0.452E+00    0.214E+01
RMM:  10    -0.117198666278E+04   -0.26457E-01   -0.12546E+01  1612   0.391E+00    0.103E+01
RMM:  11    -0.117122532936E+04    0.76133E+00   -0.18420E+00  1699   0.155E+00    0.760E+00
RMM:  12    -0.117082438125E+04    0.40095E+00   -0.24550E-01  1706   0.569E-01    0.661E+00
RMM:  13    -0.117052663961E+04    0.29774E+00   -0.16567E+00  1616   0.135E+00    0.326E+00
RMM:  14    -0.117022636863E+04    0.30027E+00   -0.57612E-01  1675   0.788E-01    0.156E+00
RMM:  15    -0.117025920008E+04   -0.32831E-01   -0.11155E-01  1800   0.347E-01    0.140E+00
RMM:  16    -0.117024675361E+04    0.12446E-01   -0.14761E-02  1739   0.137E-01    0.887E-01
RMM:  17    -0.117024064918E+04    0.61044E-02   -0.19195E-02  1675   0.137E-01    0.533E-01
RMM:  18    -0.117024083918E+04   -0.19000E-03   -0.23878E-03  1707   0.606E-02    0.426E-01
RMM:  19    -0.117023799207E+04    0.28471E-02   -0.14637E-03  1525   0.362E-02    0.301E-01
RMM:  20    -0.117023666775E+04    0.13243E-02   -0.92465E-04  1333   0.261E-02    0.216E-01
RMM:  21    -0.117023558775E+04    0.10800E-02   -0.23462E-03  1568   0.435E-02    0.810E-02
RMM:  22    -0.117023566054E+04   -0.72795E-04   -0.17937E-04  1110   0.184E-02
   1 F= -.11774952E+04 E0= -.11774952E+04  d E =-.117750E+04  mag=    -0.9998
       N       E                     dE             d eps       ncg     rms          rms(c)
DAV:   1    -0.117023330424E+04    0.22835E-02   -0.45442E-01  1656   0.109E+00    0.185E-01
RMM:   2    -0.117023481126E+04   -0.15070E-02   -0.18950E-02  1737   0.195E-01    0.293E-01
RMM:   3    -0.117023486036E+04   -0.49103E-04   -0.12987E-03  1616   0.505E-02    0.367E-01
RMM:   4    -0.117023455438E+04    0.30598E-03   -0.19214E-04  1132   0.195E-02    0.361E-01
RMM:   5    -0.117023391340E+04    0.64099E-03   -0.18925E-03  1618   0.472E-02    0.335E-01
RMM:   6    -0.117023387467E+04    0.38728E-04   -0.11852E-04  1063   0.159E-02
   2 F= -.11774942E+04 E0= -.11774942E+04  d E =0.951240E-03  mag=    -1.0000
       N       E                     dE             d eps       ncg     rms          rms(c)
DAV:   1    -0.117023571692E+04   -0.18035E-02   -0.16210E-01  1620   0.648E-01    0.294E-01
RMM:   2    -0.117023616929E+04   -0.45237E-03   -0.57689E-03  1700   0.111E-01    0.146E-01
RMM:   3    -0.117023604667E+04    0.12261E-03   -0.39122E-04  1231   0.285E-02    0.796E-02
RMM:   4    -0.117023593757E+04    0.10910E-03   -0.22294E-04  1121   0.202E-02    0.549E-02
RMM:   5    -0.117023591726E+04    0.20315E-04   -0.19297E-04  1088   0.183E-02
   3 F= -.11774958E+04 E0= -.11774958E+04  d E =-.595771E-03  mag=    -1.0000
