       N       E                     dE             d eps       ncg     rms          rms(c)
DAV:   1     0.489654397843E+04    0.48965E+04   -0.17593E+05  1872   0.916E+02
DAV:   2    -0.546656177647E+02   -0.49512E+04   -0.45275E+04  2520   0.211E+02
DAV:   3    -0.119061980090E+04   -0.11360E+04   -0.11284E+04  2088   0.111E+02
DAV:   4    -0.123787738688E+04   -0.47258E+02   -0.47009E+02  2052   0.296E+01
DAV:   5    -0.123910619291E+04   -0.12288E+01   -0.12260E+01  2376   0.453E+00    0.959E+01
RMM:   6    -0.123854684047E+04    0.55935E+00   -0.18965E+02  1888   0.178E+01    0.960E+01
RMM:   7    -0.121771254777E+04    0.20834E+02   -0.90654E+00  1591   0.487E+00    0.709E+01
RMM:   8    -0.118820716214E+04    0.29505E+02   -0.30839E+01  1590   0.707E+00    0.347E+01
RMM:   9    -0.117659485733E+04    0.11612E+02   -0.10720E+01  1584   0.434E+00    0.284E+01
RMM:  10    -0.116251970057E+04    0.14075E+02   -0.34803E+01  1584   0.682E+00    0.168E+01
RMM:  11    -0.116371241735E+04   -0.11927E+01   -0.11294E+01  1590   0.428E+00    0.944E+00
RMM:  12    -0.116359499002E+04    0.11743E+00   -0.61082E-01  1727   0.109E+00    0.721E+00
RMM:  13    -0.116336125108E+04    0.23374E+00   -0.34629E+00  1604   0.221E+00    0.962E+00
RMM:  14    -0.116281116748E+04    0.55008E+00   -0.11472E+00  1646   0.151E+00    0.165E+00
RMM:  15    -0.116276880383E+04    0.42364E-01   -0.14376E-01  1598   0.469E-01    0.672E-01
RMM:  16    -0.116276995455E+04   -0.11507E-02   -0.23284E-02  1706   0.161E-01    0.630E-01
RMM:  17    -0.116276678661E+04    0.31679E-02   -0.17311E-03  1586   0.696E-02    0.472E-01
RMM:  18    -0.116276583634E+04    0.95028E-03   -0.16612E-03  1530   0.542E-02    0.306E-01
RMM:  19    -0.116276556618E+04    0.27015E-03   -0.97622E-04  1328   0.402E-02    0.167E-01
RMM:  20    -0.116276539915E+04    0.16703E-03   -0.12419E-03  1428   0.392E-02    0.766E-02
RMM:  21    -0.116276547951E+04   -0.80357E-04   -0.22241E-04  1078   0.221E-02
   1 F= -.11698021E+04 E0= -.11698021E+04  d E =-.116980E+04  mag=    -0.0020
       N       E                     dE             d eps       ncg     rms          rms(c)
DAV:   1    -0.116274999737E+04    0.15402E-01   -0.13613E+00  1764   0.262E+00    0.324E-01
RMM:   2    -0.116275830528E+04   -0.83079E-02   -0.90478E-02  1723   0.415E-01    0.279E-01
RMM:   3    -0.116275714270E+04    0.11626E-02   -0.43628E-03  1872   0.101E-01    0.271E-01
RMM:   4    -0.116275641499E+04    0.72770E-03   -0.87803E-04  1563   0.361E-02    0.222E-01
RMM:   5    -0.116275561340E+04    0.80160E-03   -0.45077E-03  1583   0.730E-02    0.870E-02
RMM:   6    -0.116275555688E+04    0.56514E-04   -0.17710E-04  1066   0.232E-02
   2 F= -.11697924E+04 E0= -.11697924E+04  d E =0.969124E-02  mag=    -0.0003
       N       E                     dE             d eps       ncg     rms          rms(c)
DAV:   1    -0.116276415738E+04   -0.85440E-02   -0.76297E-01  1656   0.195E+00    0.216E-01
RMM:   2    -0.116276806708E+04   -0.39097E-02   -0.42753E-02  1708   0.295E-01    0.183E-01
RMM:   3    -0.116276738945E+04    0.67764E-03   -0.18009E-03  1678   0.659E-02    0.173E-01
RMM:   4    -0.116276686172E+04    0.52772E-03   -0.85540E-04  1554   0.349E-02    0.119E-01
RMM:   5    -0.116276663080E+04    0.23092E-03   -0.11891E-03  1558   0.391E-02    0.567E-02
RMM:   6    -0.116276659612E+04    0.34677E-04   -0.97497E-05  1024   0.174E-02
   3 F= -.11698033E+04 E0= -.11698033E+04  d E =-.117183E-02  mag=    -0.0001
