       N       E                     dE             d eps       ncg     rms          rms(c)
DAV:   1     0.492134187114E+04    0.49213E+04   -0.17074E+05  1836   0.910E+02
DAV:   2    -0.494320656139E+02   -0.49708E+04   -0.45284E+04  2520   0.208E+02
DAV:   3    -0.119186242841E+04   -0.11424E+04   -0.11373E+04  2124   0.110E+02
DAV:   4    -0.123681652395E+04   -0.44954E+02   -0.44726E+02  1980   0.287E+01
DAV:   5    -0.123799858267E+04   -0.11821E+01   -0.11793E+01  2304   0.444E+00    0.685E+01
RMM:   6    -0.121752473969E+04    0.20474E+02   -0.28576E+01  1585   0.498E+00    0.584E+01
RMM:   7    -0.120379067235E+04    0.13734E+02   -0.73213E+00  1584   0.304E+00    0.439E+01
RMM:   8    -0.118127814041E+04    0.22513E+02   -0.22405E+01  1584   0.544E+00    0.303E+01
RMM:   9    -0.116742536361E+04    0.13853E+02   -0.25420E+01  1584   0.575E+00    0.206E+01
RMM:  10    -0.116843923386E+04   -0.10139E+01   -0.22558E+01  1584   0.535E+00    0.869E+00
RMM:  11    -0.116758793102E+04    0.85130E+00   -0.68568E-01  1616   0.107E+00    0.584E+00
RMM:  12    -0.116724924399E+04    0.33869E+00   -0.10686E+00  1584   0.109E+00    0.336E+00
RMM:  13    -0.116705558357E+04    0.19366E+00   -0.27276E-01  1584   0.548E-01    0.102E+00
RMM:  14    -0.116704570220E+04    0.98814E-02   -0.53032E-02  1588   0.262E-01    0.626E-01
RMM:  15    -0.116704449661E+04    0.12056E-02   -0.10794E-02  1617   0.120E-01    0.310E-01
RMM:  16    -0.116704437071E+04    0.12590E-03   -0.46344E-03  1584   0.765E-02    0.206E-01
RMM:  17    -0.116704437506E+04   -0.43520E-05   -0.10883E-03  1564   0.396E-02    0.113E-01
RMM:  18    -0.116704448417E+04   -0.10910E-03   -0.10428E-03  1554   0.352E-02    0.818E-02
RMM:  19    -0.116704445767E+04    0.26491E-04   -0.50678E-04  1523   0.261E-02
   1 F= -.11743427E+04 E0= -.11743427E+04  d E =-.117434E+04  mag=    -0.0029
       N       E                     dE             d eps       ncg     rms          rms(c)
DAV:   1    -0.116704287930E+04    0.16049E-02   -0.11532E+00  1656   0.153E+00    0.512E-01
RMM:   2    -0.116704466321E+04   -0.17839E-02   -0.29173E-02  1584   0.215E-01    0.512E-01
RMM:   3    -0.116704447726E+04    0.18595E-03   -0.15285E-03  1568   0.455E-02    0.498E-01
RMM:   4    -0.116704348158E+04    0.99568E-03   -0.60166E-03  1584   0.831E-02    0.160E-01
RMM:   5    -0.116704366359E+04   -0.18202E-03   -0.92356E-04  1584   0.348E-02    0.106E-01
RMM:   6    -0.116704356968E+04    0.93906E-04   -0.47689E-05  1016   0.972E-03
   2 F= -.11743429E+04 E0= -.11743429E+04  d E =-.145807E-03  mag=    -0.0004
       N       E                     dE             d eps       ncg     rms          rms(c)
DAV:   1    -0.116704580414E+04   -0.21405E-02   -0.24355E-01  1656   0.704E-01    0.231E-01
RMM:   2    -0.116704602340E+04   -0.21926E-03   -0.52854E-03  1584   0.873E-02    0.239E-01
RMM:   3    -0.116704599418E+04    0.29225E-04   -0.22728E-04  1093   0.178E-02
   3 F= -.11743448E+04 E0= -.11743448E+04  d E =-.208563E-02  mag=    -0.0001
       N       E                     dE             d eps       ncg     rms          rms(c)
DAV:   1    -0.116704341024E+04    0.26132E-02   -0.64596E-01  1620   0.129E+00    0.302E-01
RMM:   2    -0.116704403060E+04   -0.62036E-03   -0.17033E-02  1584   0.197E-01    0.298E-01
RMM:   3    -0.116704360476E+04    0.42585E-03   -0.79602E-04  1392   0.382E-02    0.284E-01
RMM:   4    -0.116704156061E+04    0.20441E-02   -0.91970E-03  1584   0.106E-01    0.110E-01
RMM:   5    -0.116704148984E+04    0.70777E-04   -0.19574E-04  1080   0.214E-02
   4 F= -.11743395E+04 E0= -.11743395E+04  d E =0.528237E-02  mag=    -0.0000
       N       E                     dE             d eps       ncg     rms          rms(c)
DAV:   1    -0.116704669274E+04   -0.51321E-02   -0.37961E-01  1728   0.985E-01    0.184E-01
RMM:   2    -0.116704718160E+04   -0.48885E-03   -0.92348E-03  1584   0.144E-01    0.151E-01
RMM:   3    -0.116704690955E+04    0.27204E-03   -0.44918E-04  1260   0.291E-02    0.132E-01
RMM:   4    -0.116704633222E+04    0.57733E-03   -0.26943E-03  1584   0.578E-02    0.463E-02
RMM:   5    -0.116704631438E+04    0.17846E-04   -0.47371E-05  1008   0.112E-02
   5 F= -.11743449E+04 E0= -.11743449E+04  d E =-.137567E-03  mag=    -0.0000
