       N       E                     dE             d eps       ncg     rms          rms(c)
DAV:   1     0.469250907046E+04    0.46925E+04   -0.17380E+05  7424   0.931E+02
DAV:   2    -0.793800319260E+02   -0.47719E+04   -0.43275E+04  9728   0.208E+02
DAV:   3    -0.119075387016E+04   -0.11114E+04   -0.11060E+04  8096   0.110E+02
DAV:   4    -0.123676990345E+04   -0.46016E+02   -0.45779E+02  8000   0.297E+01
DAV:   5    -0.123793630893E+04   -0.11664E+01   -0.11644E+01  9120   0.439E+00    0.663E+01
RMM:   6    -0.121744387848E+04    0.20492E+02   -0.19287E+01  8712   0.468E+00    0.503E+01
RMM:   7    -0.119739454540E+04    0.20049E+02   -0.15846E+01  7700   0.528E+00    0.388E+01
RMM:   8    -0.117093047302E+04    0.26464E+02   -0.43594E+01  8374   0.822E+00    0.239E+01
RMM:   9    -0.116657345767E+04    0.43570E+01   -0.17659E+01  7738   0.578E+00    0.156E+01
RMM:  10    -0.116749614432E+04   -0.92269E+00   -0.98868E+00  7800   0.434E+00    0.892E+00
RMM:  11    -0.116739187767E+04    0.10427E+00   -0.12322E+00  8252   0.202E+00    0.739E+00
RMM:  12    -0.116698664925E+04    0.40523E+00   -0.12390E+00  7867   0.140E+00    0.261E+00
RMM:  13    -0.116671918874E+04    0.26746E+00   -0.43294E-01  7793   0.882E-01    0.121E+00
RMM:  14    -0.116672393985E+04   -0.47511E-02   -0.99280E-02  8240   0.471E-01    0.422E-01
RMM:  15    -0.116672030912E+04    0.36307E-02   -0.14439E-02  8492   0.220E-01    0.462E-01
RMM:  16    -0.116671906609E+04    0.12430E-02   -0.54117E-03  8392   0.100E-01    0.355E-01
RMM:  17    -0.116671920497E+04   -0.13888E-03   -0.29895E-03  8653   0.703E-02    0.283E-01
RMM:  18    -0.116671951316E+04   -0.30819E-03   -0.78430E-04  7573   0.400E-02    0.190E-01
RMM:  19    -0.116671948933E+04    0.23833E-04   -0.23876E-04  6193   0.225E-02
   1 F= -.11667195E+04 E0= -.11667195E+04  d E =0.000000E+00  mag=    -0.0009
