       N       E                     dE             d eps       ncg     rms          rms(c)
DAV:   1     0.495702928109E+04    0.49570E+04   -0.17391E+05  1872   0.917E+02
DAV:   2    -0.332929237285E+02   -0.49903E+04   -0.45644E+04  2556   0.214E+02
DAV:   3    -0.118937162597E+04   -0.11561E+04   -0.11507E+04  2088   0.113E+02
DAV:   4    -0.124607731832E+04   -0.56706E+02   -0.56407E+02  2160   0.366E+01
DAV:   5    -0.124778392467E+04   -0.17066E+01   -0.16981E+01  2124   0.543E+00    0.672E+01
RMM:   6    -0.123185467312E+04    0.15929E+02   -0.93767E+00  1858   0.378E+00    0.553E+01
RMM:   7    -0.119452817125E+04    0.37327E+02   -0.11069E+02  1934   0.126E+01    0.328E+01
RMM:   8    -0.118543359683E+04    0.90946E+01   -0.82214E+00  1953   0.755E+00    0.259E+01
RMM:   9    -0.118254305683E+04    0.28905E+01   -0.18689E+01  1707   0.498E+00    0.200E+01
RMM:  10    -0.118328025570E+04   -0.73720E+00   -0.12160E+01  1883   0.729E+00    0.128E+01
RMM:  11    -0.118043371180E+04    0.28465E+01   -0.40799E+00  1936   0.277E+00    0.819E+00
RMM:  12    -0.117983346499E+04    0.60025E+00   -0.18681E+00  1892   0.259E+00    0.611E+00
RMM:  13    -0.117968952474E+04    0.14394E+00   -0.57796E-01  1750   0.838E-01    0.533E+00
RMM:  14    -0.117951374712E+04    0.17578E+00   -0.54868E-01  1846   0.136E+00    0.326E+00
RMM:  15    -0.117925423026E+04    0.25952E+00   -0.47292E-01  1732   0.982E-01    0.236E+00
RMM:  16    -0.117930449890E+04   -0.50269E-01   -0.88515E-02  1767   0.929E-01    0.183E+00
RMM:  17    -0.117931582289E+04   -0.11324E-01   -0.29999E-02  1960   0.227E-01    0.125E+00
RMM:  18    -0.117932814413E+04   -0.12321E-01   -0.21809E-02  1789   0.191E-01    0.685E-01
RMM:  19    -0.117932967123E+04   -0.15271E-02   -0.57520E-03  1734   0.150E-01    0.456E-01
RMM:  20    -0.117933037052E+04   -0.69929E-03   -0.15360E-03  1559   0.885E-02    0.436E-01
RMM:  21    -0.117933063617E+04   -0.26565E-03   -0.47208E-04  1305   0.607E-02    0.398E-01
RMM:  22    -0.117933025015E+04    0.38602E-03   -0.26489E-04  1132   0.344E-02    0.274E-01
RMM:  23    -0.117933000045E+04    0.24970E-03   -0.22445E-04  1154   0.279E-02    0.206E-01
RMM:  24    -0.117932998933E+04    0.11122E-04   -0.16667E-04  1098   0.281E-02
   1 F= -.11864804E+04 E0= -.11864804E+04  d E =-.118648E+04  mag=     1.0037
       N       E                     dE             d eps       ncg     rms          rms(c)
DAV:   1    -0.117929968834E+04    0.30312E-01   -0.35305E+00  1728   0.314E+00    0.740E-01
RMM:   2    -0.117932573809E+04   -0.26050E-01   -0.27971E-01  2055   0.619E-01    0.644E-01
RMM:   3    -0.117932650324E+04   -0.76515E-03   -0.27088E-02  1948   0.343E-01    0.638E-01
RMM:   4    -0.117932609170E+04    0.41155E-03   -0.54061E-03  1684   0.754E-02    0.566E-01
RMM:   5    -0.117932419377E+04    0.18979E-02   -0.54264E-03  1912   0.117E-01    0.357E-01
RMM:   6    -0.117932400073E+04    0.19304E-03   -0.22067E-03  1659   0.828E-02    0.225E-01
RMM:   7    -0.117932416381E+04   -0.16308E-03   -0.65442E-04  1383   0.743E-02    0.907E-02
RMM:   8    -0.117932409330E+04    0.70512E-04   -0.27544E-04  1174   0.389E-02
   2 F= -.11864749E+04 E0= -.11864749E+04  d E =0.549732E-02  mag=     1.0001
       N       E                     dE             d eps       ncg     rms          rms(c)
DAV:   1    -0.117932799380E+04   -0.38300E-02   -0.11936E+00  1656   0.183E+00    0.406E-01
RMM:   2    -0.117933580266E+04   -0.78089E-02   -0.86364E-02  1995   0.351E-01    0.360E-01
RMM:   3    -0.117933599845E+04   -0.19579E-03   -0.95812E-03  1730   0.209E-01    0.329E-01
RMM:   4    -0.117933572751E+04    0.27094E-03   -0.18438E-03  1479   0.516E-02    0.285E-01
RMM:   5    -0.117933503757E+04    0.68994E-03   -0.21252E-03  1833   0.790E-02    0.154E-01
RMM:   6    -0.117933499588E+04    0.41690E-04   -0.75096E-04  1537   0.575E-02
   3 F= -.11864856E+04 E0= -.11864856E+04  d E =-.514986E-02  mag=     1.0000
       N       E                     dE             d eps       ncg     rms          rms(c)
DAV:   1    -0.117931944821E+04    0.15589E-01   -0.18262E+00  1800   0.222E+00    0.534E-01
RMM:   2    -0.117933581201E+04   -0.16364E-01   -0.17322E-01  1997   0.426E-01    0.430E-01
RMM:   3    -0.117933708973E+04   -0.12777E-02   -0.20967E-02  1787   0.250E-01    0.400E-01
RMM:   4    -0.117933722071E+04   -0.13098E-03   -0.35536E-03  1503   0.524E-02    0.348E-01
RMM:   5    -0.117933693999E+04    0.28072E-03   -0.18622E-03  1684   0.771E-02    0.219E-01
RMM:   6    -0.117933689800E+04    0.41989E-04   -0.82357E-04  1493   0.503E-02
   4 F= -.11864878E+04 E0= -.11864878E+04  d E =-.216780E-02  mag=     1.0000
       N       E                     dE             d eps       ncg     rms          rms(c)
DAV:   1    -0.117933620737E+04    0.73262E-03   -0.23404E-01  1800   0.792E-01    0.205E-01
RMM:   2    -0.117933808028E+04   -0.18729E-02   -0.20622E-02  1862   0.146E-01    0.196E-01
RMM:   3    -0.117933826047E+04   -0.18019E-03   -0.32541E-03  1256   0.128E-01    0.150E-01
RMM:   4    -0.117933822401E+04    0.36453E-04   -0.57060E-04  1125   0.259E-02
   5 F= -.11864890E+04 E0= -.11864890E+04  d E =-.338533E-02  mag=     1.0000
       N       E                     dE             d eps       ncg     rms          rms(c)
DAV:   1    -0.117933353325E+04    0.47272E-02   -0.11761E+00  1656   0.180E+00    0.320E-01
RMM:   2    -0.117933929832E+04   -0.57651E-02   -0.62832E-02  2063   0.310E-01    0.279E-01
RMM:   3    -0.117933931546E+04   -0.17140E-04   -0.45424E-03  1694   0.141E-01    0.221E-01
RMM:   4    -0.117933913410E+04    0.18136E-03   -0.14241E-03  1416   0.551E-02    0.179E-01
RMM:   5    -0.117933890169E+04    0.23240E-03   -0.10192E-03  1536   0.631E-02    0.967E-02
RMM:   6    -0.117933890577E+04   -0.40773E-05   -0.45706E-04  1371   0.538E-02
   6 F= -.11864898E+04 E0= -.11864898E+04  d E =-.842975E-03  mag=     1.0000
       N       E                     dE             d eps       ncg     rms          rms(c)
DAV:   1    -0.117933921123E+04   -0.30953E-03   -0.17494E-01  1800   0.694E-01    0.124E-01
RMM:   2    -0.117933999885E+04   -0.78763E-03   -0.90017E-03  1860   0.111E-01    0.113E-01
RMM:   3    -0.117933997373E+04    0.25120E-04   -0.75111E-04  1184   0.787E-02
   7 F= -.11864908E+04 E0= -.11864908E+04  d E =-.184259E-02  mag=     1.0000
       N       E                     dE             d eps       ncg     rms          rms(c)
DAV:   1    -0.117933931950E+04    0.67935E-03   -0.70990E-01  1656   0.137E+00    0.190E-01
RMM:   2    -0.117934133580E+04   -0.20163E-02   -0.22079E-02  2042   0.206E-01    0.182E-01
RMM:   3    -0.117934133677E+04   -0.96458E-06   -0.19481E-03  1504   0.879E-02    0.146E-01
RMM:   4    -0.117934128015E+04    0.56619E-04   -0.36610E-04  1128   0.437E-02
   8 F= -.11864923E+04 E0= -.11864923E+04  d E =-.146957E-02  mag=     1.0000
       N       E                     dE             d eps       ncg     rms          rms(c)
DAV:   1    -0.117934117666E+04    0.16011E-03   -0.38738E-04  2052   0.388E-02    0.809E-02
RMM:   2    -0.117934117085E+04    0.58059E-05   -0.46394E-05   971   0.109E-02
   9 F= -.11864922E+04 E0= -.11864922E+04  d E =-.136273E-02  mag=     1.0000
       N       E                     dE             d eps       ncg     rms          rms(c)
DAV:   1    -0.117934132761E+04   -0.15095E-03   -0.38185E-01  1656   0.101E+00    0.185E-01
RMM:   2    -0.117934243065E+04   -0.11030E-02   -0.12689E-02  1946   0.163E-01    0.167E-01
RMM:   3    -0.117934238644E+04    0.44215E-04   -0.91632E-04  1439   0.862E-02
  10 F= -.11864936E+04 E0= -.11864936E+04  d E =-.137440E-02  mag=     1.0000
       N       E                     dE             d eps       ncg     rms          rms(c)
DAV:   1    -0.117934235883E+04    0.71827E-04   -0.44354E-03  2052   0.112E-01    0.122E-01
RMM:   2    -0.117934234128E+04    0.17550E-04   -0.16858E-04  1008   0.162E-02
  11 F= -.11864935E+04 E0= -.11864935E+04  d E =-.134640E-02  mag=     1.0000
       N       E                     dE             d eps       ncg     rms          rms(c)
DAV:   1    -0.117934217088E+04    0.18794E-03   -0.33694E-01  1800   0.971E-01    0.173E-01
RMM:   2    -0.117934336268E+04   -0.11918E-02   -0.13715E-02  1953   0.157E-01    0.152E-01
RMM:   3    -0.117934333525E+04    0.27435E-04   -0.95953E-04  1414   0.844E-02
  12 F= -.11864948E+04 E0= -.11864948E+04  d E =-.126933E-02  mag=     1.0000
       N       E                     dE             d eps       ncg     rms          rms(c)
DAV:   1    -0.117934330805E+04    0.54631E-04   -0.41715E-03  2088   0.109E-01    0.128E-01
RMM:   2    -0.117934329773E+04    0.10321E-04   -0.21005E-04  1024   0.170E-02
  13 F= -.11864948E+04 E0= -.11864948E+04  d E =-.126182E-02  mag=     1.0000
       N       E                     dE             d eps       ncg     rms          rms(c)
DAV:   1    -0.117934373105E+04   -0.42299E-03   -0.34337E-01  1728   0.934E-01    0.156E-01
RMM:   2    -0.117934441015E+04   -0.67910E-03   -0.86330E-03  1885   0.152E-01    0.125E-01
RMM:   3    -0.117934435767E+04    0.52482E-04   -0.72867E-04  1453   0.743E-02
  14 F= -.11864959E+04 E0= -.11864959E+04  d E =-.111085E-02  mag=     1.0000
       N       E                     dE             d eps       ncg     rms          rms(c)
DAV:   1    -0.117934435232E+04    0.57826E-04   -0.12470E-02  1944   0.181E-01    0.102E-01
RMM:   2    -0.117934434471E+04    0.76138E-05   -0.27746E-04  1126   0.241E-02
  15 F= -.11864959E+04 E0= -.11864959E+04  d E =-.110803E-02  mag=     1.0000
       N       E                     dE             d eps       ncg     rms          rms(c)
DAV:   1    -0.117934512045E+04   -0.76812E-03   -0.28183E-01  1584   0.815E-01    0.154E-01
RMM:   2    -0.117934552035E+04   -0.39990E-03   -0.57244E-03  1805   0.129E-01    0.148E-01
RMM:   3    -0.117934551722E+04    0.31289E-05   -0.62833E-04  1425   0.743E-02
  16 F= -.11864970E+04 E0= -.11864970E+04  d E =-.107224E-02  mag=     1.0000
       N       E                     dE             d eps       ncg     rms          rms(c)
DAV:   1    -0.117934560833E+04   -0.87974E-04   -0.11215E-01  1728   0.515E-01    0.180E-01
RMM:   2    -0.117934567057E+04   -0.62241E-04   -0.23272E-03  1666   0.787E-02    0.172E-01
RMM:   3    -0.117934560895E+04    0.61618E-04   -0.26419E-04  1138   0.580E-02
  17 F= -.11864970E+04 E0= -.11864970E+04  d E =-.110151E-02  mag=     1.0000
       N       E                     dE             d eps       ncg     rms          rms(c)
DAV:   1    -0.117934632147E+04   -0.65090E-03   -0.15954E-01  1800   0.627E-01    0.149E-01
RMM:   2    -0.117934657367E+04   -0.25220E-03   -0.38023E-03  1805   0.929E-02    0.137E-01
RMM:   3    -0.117934655534E+04    0.18331E-04   -0.31276E-04  1165   0.631E-02
  18 F= -.11864979E+04 E0= -.11864979E+04  d E =-.911947E-03  mag=     1.0000
       N       E                     dE             d eps       ncg     rms          rms(c)
DAV:   1    -0.117934646383E+04    0.10984E-03   -0.42732E-01  1656   0.102E+00    0.202E-01
RMM:   2    -0.117934725970E+04   -0.79587E-03   -0.10554E-02  1874   0.155E-01    0.184E-01
RMM:   3    -0.117934717691E+04    0.82785E-04   -0.82518E-04  1463   0.895E-02
  19 F= -.11864985E+04 E0= -.11864985E+04  d E =-.148032E-02  mag=     1.0000
       N       E                     dE             d eps       ncg     rms          rms(c)
DAV:   1    -0.117934809704E+04   -0.83735E-03   -0.22936E-01  1656   0.757E-01    0.203E-01
RMM:   2    -0.117934850856E+04   -0.41152E-03   -0.63624E-03  1805   0.116E-01    0.191E-01
RMM:   3    -0.117934845174E+04    0.56822E-04   -0.52563E-04  1331   0.814E-02
  20 F= -.11864997E+04 E0= -.11864997E+04  d E =-.124737E-02  mag=     1.0000
       N       E                     dE             d eps       ncg     rms          rms(c)
DAV:   1    -0.117934766248E+04    0.84609E-03   -0.55893E-01  1656   0.118E+00    0.255E-01
RMM:   2    -0.117934879592E+04   -0.11334E-02   -0.15265E-02  1887   0.181E-01    0.233E-01
RMM:   3    -0.117934866464E+04    0.13128E-03   -0.11801E-03  1556   0.103E-01    0.190E-01
RMM:   4    -0.117934861594E+04    0.48693E-04   -0.45047E-04  1315   0.432E-02
  21 F= -.11864999E+04 E0= -.11864999E+04  d E =-.137229E-02  mag=     1.0000
       N       E                     dE             d eps       ncg     rms          rms(c)
DAV:   1    -0.117934907335E+04   -0.40871E-03   -0.10083E-01  1800   0.501E-01    0.983E-02
RMM:   2    -0.117934925747E+04   -0.18412E-03   -0.26350E-03  1764   0.716E-02    0.908E-02
RMM:   3    -0.117934925358E+04    0.38894E-05   -0.22649E-04  1098   0.549E-02
  22 F= -.11865005E+04 E0= -.11865005E+04  d E =-.639583E-03  mag=     1.0000
       N       E                     dE             d eps       ncg     rms          rms(c)
DAV:   1    -0.117934945130E+04   -0.19384E-03   -0.15658E-01  1656   0.619E-01    0.137E-01
RMM:   2    -0.117934976343E+04   -0.31213E-03   -0.43363E-03  1811   0.966E-02    0.128E-01
RMM:   3    -0.117934974698E+04    0.16447E-04   -0.32688E-04  1157   0.645E-02
  23 F= -.11865010E+04 E0= -.11865010E+04  d E =-.113624E-02  mag=     1.0000
       N       E                     dE             d eps       ncg     rms          rms(c)
DAV:   1    -0.117935086568E+04   -0.11023E-02   -0.26964E-02  1764   0.269E-01    0.106E-01
RMM:   2    -0.117935090488E+04   -0.39200E-04   -0.71272E-04  1490   0.456E-02
  24 F= -.11865022E+04 E0= -.11865022E+04  d E =-.117981E-02  mag=     1.0000
       N       E                     dE             d eps       ncg     rms          rms(c)
DAV:   1    -0.117935145523E+04   -0.58954E-03   -0.62546E-02  1728   0.411E-01    0.127E-01
RMM:   2    -0.117935153544E+04   -0.80215E-04   -0.17619E-03  1611   0.673E-02    0.116E-01
RMM:   3    -0.117935147022E+04    0.65224E-04   -0.23534E-04  1113   0.650E-02
  25 F= -.11865028E+04 E0= -.11865028E+04  d E =-.178026E-02  mag=     1.0000
       N       E                     dE             d eps       ncg     rms          rms(c)
DAV:   1    -0.117935179378E+04   -0.25834E-03   -0.11266E-02  1728   0.177E-01    0.622E-02
RMM:   2    -0.117935179628E+04   -0.24966E-05   -0.25805E-04  1141   0.287E-02
  26 F= -.11865031E+04 E0= -.11865031E+04  d E =-.352063E-03  mag=     1.0000
       N       E                     dE             d eps       ncg     rms          rms(c)
DAV:   1    -0.117935207956E+04   -0.28578E-03   -0.29033E-02  1728   0.281E-01    0.960E-02
RMM:   2    -0.117935209103E+04   -0.11467E-04   -0.73634E-04  1519   0.445E-02
  27 F= -.11865035E+04 E0= -.11865035E+04  d E =-.688154E-03  mag=     1.0000
