       N       E                     dE             d eps       ncg     rms          rms(c)
DAV:   1     0.492687512841E+04    0.49269E+04   -0.17442E+05  1872   0.914E+02
DAV:   2    -0.515824063520E+02   -0.49785E+04   -0.45502E+04  2520   0.209E+02
DAV:   3    -0.119168211752E+04   -0.11401E+04   -0.11347E+04  2124   0.111E+02
DAV:   4    -0.123742205361E+04   -0.45740E+02   -0.45514E+02  2088   0.290E+01
DAV:   5    -0.123856651361E+04   -0.11445E+01   -0.11419E+01  2340   0.427E+00    0.793E+01
RMM:   6    -0.123433238881E+04    0.42341E+01   -0.96734E+01  1741   0.927E+00    0.833E+01
RMM:   7    -0.121325103796E+04    0.21081E+02   -0.75008E+00  1770   0.311E+00    0.496E+01
RMM:   8    -0.119928439373E+04    0.13967E+02   -0.11793E+01  1632   0.382E+00    0.413E+01
RMM:   9    -0.118455911116E+04    0.14725E+02   -0.12092E+01  1645   0.389E+00    0.293E+01
RMM:  10    -0.117054464489E+04    0.14014E+02   -0.29208E+01  1608   0.576E+00    0.192E+01
RMM:  11    -0.116948582169E+04    0.10588E+01   -0.17803E+01  1690   0.466E+00    0.968E+00
RMM:  12    -0.116986536058E+04   -0.37954E+00   -0.16409E+00  1803   0.170E+00    0.671E+00
RMM:  13    -0.116913283399E+04    0.73253E+00   -0.25413E+00  1614   0.170E+00    0.244E+00
RMM:  14    -0.116917916638E+04   -0.46332E-01   -0.80520E-02  1866   0.431E-01    0.134E+00
RMM:  15    -0.116916707872E+04    0.12088E-01   -0.41904E-02  1630   0.221E-01    0.925E-01
RMM:  16    -0.116916178173E+04    0.52970E-02   -0.24327E-02  1711   0.182E-01    0.235E-01
RMM:  17    -0.116916169714E+04    0.84593E-04   -0.22292E-03  1836   0.618E-02    0.149E-01
RMM:  18    -0.116916203159E+04   -0.33446E-03   -0.78233E-04  1665   0.329E-02    0.107E-01
RMM:  19    -0.116916223904E+04   -0.20745E-03   -0.38715E-04  1161   0.277E-02    0.748E-02
RMM:  20    -0.116916223620E+04    0.28408E-05   -0.11378E-04  1083   0.138E-02
   1 F= -.11761936E+04 E0= -.11761936E+04  d E =-.117619E+04  mag=     0.9992
       N       E                     dE             d eps       ncg     rms          rms(c)
DAV:   1    -0.116916049914E+04    0.17399E-02   -0.40184E-01  1764   0.115E+00    0.191E-01
RMM:   2    -0.116916205012E+04   -0.15510E-02   -0.19927E-02  1720   0.194E-01    0.203E-01
RMM:   3    -0.116916195410E+04    0.96026E-04   -0.10932E-03  1665   0.455E-02    0.211E-01
RMM:   4    -0.116916202555E+04   -0.71450E-04   -0.12124E-04  1100   0.158E-02
   2 F= -.11761937E+04 E0= -.11761937E+04  d E =-.998921E-04  mag=     0.9998
       N       E                     dE             d eps       ncg     rms          rms(c)
DAV:   1    -0.116916205045E+04   -0.96355E-04   -0.85202E-02  1764   0.507E-01    0.566E-02
RMM:   2    -0.116916256049E+04   -0.51004E-03   -0.49345E-03  1689   0.103E-01    0.720E-02
RMM:   3    -0.116916255145E+04    0.90428E-05   -0.27561E-04  1141   0.237E-02
   3 F= -.11761941E+04 E0= -.11761941E+04  d E =-.498718E-03  mag=     0.9999
