       N       E                     dE             d eps       ncg     rms          rms(c)
DAV:   1     0.487527775552E+04    0.48753E+04   -0.17296E+05  1872   0.912E+02
DAV:   2    -0.680732400449E+02   -0.49434E+04   -0.45051E+04  2520   0.206E+02
DAV:   3    -0.119911017833E+04   -0.11310E+04   -0.11267E+04  2088   0.109E+02
DAV:   4    -0.124478139531E+04   -0.45671E+02   -0.45452E+02  2016   0.289E+01
DAV:   5    -0.124596604255E+04   -0.11846E+01   -0.11822E+01  2304   0.435E+00    0.845E+01
RMM:   6    -0.123280587617E+04    0.13160E+02   -0.78457E+00  1584   0.314E+00    0.740E+01
RMM:   7    -0.118419572391E+04    0.48610E+02   -0.95639E+01  1584   0.109E+01    0.486E+01
RMM:   8    -0.118101191800E+04    0.31838E+01   -0.56969E+01  1584   0.850E+00    0.180E+01
RMM:   9    -0.118410335985E+04   -0.30914E+01   -0.78938E+00  1596   0.324E+00    0.112E+01
RMM:  10    -0.118005127093E+04    0.40521E+01   -0.10284E+01  1584   0.342E+00    0.480E+00
RMM:  11    -0.117997830924E+04    0.72962E-01   -0.33704E-01  1600   0.679E-01    0.263E+00
RMM:  12    -0.117988637202E+04    0.91937E-01   -0.23513E-01  1584   0.506E-01    0.139E+00
RMM:  13    -0.117987327156E+04    0.13100E-01   -0.12334E-01  1584   0.384E-01    0.605E-01
RMM:  14    -0.117986982015E+04    0.34514E-02   -0.44624E-02  1587   0.224E-01    0.672E-01
RMM:  15    -0.117986872920E+04    0.10909E-02   -0.21690E-03  1579   0.495E-02    0.536E-01
RMM:  16    -0.117986754188E+04    0.11873E-02   -0.93545E-03  1584   0.108E-01    0.240E-01
RMM:  17    -0.117986753669E+04    0.51915E-05   -0.55896E-04  1319   0.274E-02
   1 F= -.11872595E+04 E0= -.11872595E+04  d E =-.118726E+04  mag=     0.0021
       N       E                     dE             d eps       ncg     rms          rms(c)
DAV:   1    -0.117986664668E+04    0.89520E-03   -0.54943E-01  1656   0.103E+00    0.901E-01
RMM:   2    -0.117986797673E+04   -0.13300E-02   -0.17757E-02  1584   0.153E-01    0.795E-01
RMM:   3    -0.117986762429E+04    0.35244E-03   -0.91452E-04  1397   0.352E-02    0.656E-01
RMM:   4    -0.117986758534E+04    0.38947E-04   -0.35443E-03  1584   0.608E-02    0.147E-01
RMM:   5    -0.117986746525E+04    0.12010E-03   -0.96739E-05  1061   0.131E-02    0.104E-01
RMM:   6    -0.117986737055E+04    0.94692E-04   -0.40608E-04  1147   0.180E-02
   2 F= -.11872597E+04 E0= -.11872597E+04  d E =-.259358E-03  mag=    -0.0001
       N       E                     dE             d eps       ncg     rms          rms(c)
DAV:   1    -0.117986840623E+04   -0.94098E-03   -0.13316E-01  1692   0.510E-01    0.445E-01
RMM:   2    -0.117986859935E+04   -0.19312E-03   -0.37143E-03  1584   0.731E-02    0.388E-01
RMM:   3    -0.117986842979E+04    0.16956E-03   -0.21774E-04  1080   0.178E-02    0.304E-01
RMM:   4    -0.117986841418E+04    0.15606E-04   -0.12101E-03  1558   0.353E-02    0.835E-02
RMM:   5    -0.117986835723E+04    0.56954E-04   -0.50448E-05  1016   0.860E-03
   3 F= -.11872605E+04 E0= -.11872605E+04  d E =-.103602E-02  mag=    -0.0000
       N       E                     dE             d eps       ncg     rms          rms(c)
DAV:   1    -0.117986968622E+04   -0.12720E-02   -0.18526E-01  1692   0.651E-01    0.275E-01
RMM:   2    -0.117986979965E+04   -0.11343E-03   -0.33501E-03  1585   0.806E-02    0.263E-01
RMM:   3    -0.117986967929E+04    0.12036E-03   -0.17364E-04  1130   0.180E-02    0.242E-01
RMM:   4    -0.117986956131E+04    0.11799E-03   -0.23587E-03  1584   0.516E-02    0.520E-02
RMM:   5    -0.117986950047E+04    0.60834E-04   -0.31545E-05  1010   0.869E-03
   4 F= -.11872618E+04 E0= -.11872618E+04  d E =-.127685E-02  mag=    -0.0000
       N       E                     dE             d eps       ncg     rms          rms(c)
DAV:   1    -0.117986950087E+04    0.60433E-04   -0.56810E-03  1872   0.112E-01    0.665E-02
RMM:   2    -0.117986950862E+04   -0.77503E-05   -0.16079E-04  1030   0.193E-02
   5 F= -.11872618E+04 E0= -.11872618E+04  d E =-.130607E-02  mag=    -0.0000
       N       E                     dE             d eps       ncg     rms          rms(c)
DAV:   1    -0.117987051258E+04   -0.10117E-02   -0.16745E-01  1728   0.629E-01    0.211E-01
RMM:   2    -0.117987064013E+04   -0.12755E-03   -0.31279E-03  1584   0.811E-02    0.173E-01
RMM:   3    -0.117987047934E+04    0.16079E-03   -0.23506E-04  1134   0.211E-02    0.120E-01
RMM:   4    -0.117987047412E+04    0.52166E-05   -0.75631E-04  1532   0.300E-02
   6 F= -.11872628E+04 E0= -.11872628E+04  d E =-.981687E-03  mag=     0.0000
       N       E                     dE             d eps       ncg     rms          rms(c)
DAV:   1    -0.117987048942E+04   -0.10084E-04   -0.18160E-02  1728   0.208E-01    0.744E-02
RMM:   2    -0.117987050492E+04   -0.15499E-04   -0.37161E-04  1234   0.288E-02
   7 F= -.11872628E+04 E0= -.11872628E+04  d E =-.101771E-02  mag=     0.0000
       N       E                     dE             d eps       ncg     rms          rms(c)
DAV:   1    -0.117987098972E+04   -0.50030E-03   -0.71092E-02  1728   0.400E-01    0.154E-01
RMM:   2    -0.117987102758E+04   -0.37860E-04   -0.12370E-03  1562   0.500E-02    0.130E-01
RMM:   3    -0.117987099168E+04    0.35905E-04   -0.10440E-04  1034   0.145E-02
   8 F= -.11872634E+04 E0= -.11872634E+04  d E =-.567380E-03  mag=    -0.0000
       N       E                     dE             d eps       ncg     rms          rms(c)
DAV:   1    -0.117987086172E+04    0.16586E-03   -0.62759E-01  1584   0.119E+00    0.345E-01
RMM:   2    -0.117987149732E+04   -0.63560E-03   -0.10044E-02  1584   0.142E-01    0.282E-01
RMM:   3    -0.117987128630E+04    0.21102E-03   -0.62571E-04  1372   0.345E-02    0.203E-01
RMM:   4    -0.117987136971E+04   -0.83412E-04   -0.13413E-03  1554   0.405E-02    0.517E-02
RMM:   5    -0.117987132469E+04    0.45027E-04   -0.39913E-05  1026   0.888E-03
   9 F= -.11872640E+04 E0= -.11872640E+04  d E =-.114488E-02  mag=    -0.0000
       N       E                     dE             d eps       ncg     rms          rms(c)
DAV:   1    -0.117987280721E+04   -0.14375E-02   -0.10048E-01  1728   0.489E-01    0.252E-01
RMM:   2    -0.117987292639E+04   -0.11917E-03   -0.28439E-03  1584   0.733E-02    0.157E-01
RMM:   3    -0.117987271744E+04    0.20894E-03   -0.17619E-04  1056   0.179E-02    0.117E-01
RMM:   4    -0.117987257690E+04    0.14054E-03   -0.80057E-04  1550   0.310E-02    0.532E-02
RMM:   5    -0.117987255654E+04    0.20361E-04   -0.44936E-05  1006   0.819E-03
  10 F= -.11872650E+04 E0= -.11872650E+04  d E =-.103038E-02  mag=    -0.0000
       N       E                     dE             d eps       ncg     rms          rms(c)
DAV:   1    -0.117987255946E+04    0.17443E-04   -0.61970E-04  1800   0.379E-02    0.175E-02
RMM:   2    -0.117987255646E+04    0.30025E-05   -0.15079E-05   966   0.575E-03
  11 F= -.11872650E+04 E0= -.11872650E+04  d E =-.104465E-02  mag=    -0.0000
