       N       E                     dE             d eps       ncg     rms          rms(c)
DAV:   1     0.480897403720E+04    0.48090E+04   -0.17353E+05  1872   0.909E+02
DAV:   2    -0.712476504234E+02   -0.48802E+04   -0.44481E+04  2520   0.210E+02
DAV:   3    -0.118046355058E+04   -0.11092E+04   -0.11037E+04  2124   0.111E+02
DAV:   4    -0.123532374263E+04   -0.54860E+02   -0.54575E+02  2088   0.325E+01
DAV:   5    -0.123740284674E+04   -0.20791E+01   -0.20743E+01  2448   0.590E+00    0.624E+01
RMM:   6    -0.122264606370E+04    0.14757E+02   -0.83000E+00  1676   0.345E+00    0.507E+01
RMM:   7    -0.118258137252E+04    0.40065E+02   -0.66380E+01  1834   0.104E+01    0.307E+01
RMM:   8    -0.117665317408E+04    0.59282E+01   -0.97533E+00  1827   0.889E+00    0.243E+01
RMM:   9    -0.117191579924E+04    0.47374E+01   -0.49033E+01  1675   0.875E+00    0.143E+01
RMM:  10    -0.117248348703E+04   -0.56769E+00   -0.68643E+00  1711   0.109E+01    0.117E+01
RMM:  11    -0.117051203898E+04    0.19714E+01   -0.28591E+00  2003   0.195E+00    0.656E+00
RMM:  12    -0.117038181429E+04    0.13022E+00   -0.22535E+00  1756   0.136E+00    0.599E+00
RMM:  13    -0.116998322615E+04    0.39859E+00   -0.34162E-01  1835   0.110E+00    0.351E+00
RMM:  14    -0.116985063837E+04    0.13259E+00   -0.50038E-01  1730   0.778E-01    0.132E+00
RMM:  15    -0.116983800287E+04    0.12636E-01   -0.11647E-01  1762   0.912E-01    0.686E-01
RMM:  16    -0.116984259584E+04   -0.45930E-02   -0.59838E-02  1946   0.197E-01    0.610E-01
RMM:  17    -0.116983981720E+04    0.27786E-02   -0.25894E-03  1508   0.840E-02    0.524E-01
RMM:  18    -0.116983935720E+04    0.46000E-03   -0.66172E-03  1598   0.854E-02    0.459E-01
RMM:  19    -0.116983959838E+04   -0.24118E-03   -0.22124E-03  1453   0.690E-02    0.256E-01
RMM:  20    -0.116983960374E+04   -0.53638E-05   -0.64721E-04  1264   0.656E-02
   1 F= -.11769115E+04 E0= -.11769065E+04  d E =-.117691E+04  mag=    -0.8546
       N       E                     dE             d eps       ncg     rms          rms(c)
DAV:   1    -0.116983673579E+04    0.28626E-02   -0.51904E-01  1800   0.124E+00    0.240E-01
RMM:   2    -0.116983806755E+04   -0.13318E-02   -0.20453E-02  1915   0.196E-01    0.223E-01
RMM:   3    -0.116983757947E+04    0.48808E-03   -0.18139E-03  1490   0.115E-01    0.191E-01
RMM:   4    -0.116983679020E+04    0.78927E-03   -0.12691E-03  1666   0.665E-02    0.128E-01
RMM:   5    -0.116983650526E+04    0.28493E-03   -0.13656E-03  1708   0.676E-02    0.684E-02
RMM:   6    -0.116983651513E+04   -0.98670E-05   -0.44003E-04  1333   0.543E-02
   2 F= -.11769094E+04 E0= -.11769043E+04  d E =0.212497E-02  mag=    -0.8443
       N       E                     dE             d eps       ncg     rms          rms(c)
DAV:   1    -0.116984030474E+04   -0.37995E-02   -0.23202E-01  1872   0.829E-01    0.150E-01
RMM:   2    -0.116984073150E+04   -0.42676E-03   -0.77854E-03  1722   0.125E-01    0.137E-01
RMM:   3    -0.116984050024E+04    0.23126E-03   -0.96116E-04  1437   0.110E-01    0.119E-01
RMM:   4    -0.116984006717E+04    0.43307E-03   -0.78210E-04  1588   0.434E-02    0.667E-02
RMM:   5    -0.116983998083E+04    0.86348E-04   -0.50146E-04  1384   0.725E-02
   3 F= -.11769122E+04 E0= -.11769070E+04  d E =-.700231E-03  mag=    -0.8421
