       N       E                     dE             d eps       ncg     rms          rms(c)
DAV:   1     0.496530928453E+04    0.49653E+04   -0.17347E+05  1836   0.923E+02
DAV:   2    -0.516610077078E+02   -0.50170E+04   -0.45915E+04  2592   0.211E+02
DAV:   3    -0.118983000742E+04   -0.11382E+04   -0.11332E+04  2088   0.110E+02
DAV:   4    -0.123563007029E+04   -0.45800E+02   -0.45555E+02  1944   0.292E+01
DAV:   5    -0.123687939907E+04   -0.12493E+01   -0.12463E+01  2340   0.458E+00    0.636E+01
RMM:   6    -0.122152463211E+04    0.15355E+02   -0.15427E+01  1584   0.405E+00    0.499E+01
RMM:   7    -0.119946189413E+04    0.22063E+02   -0.17563E+01  1584   0.486E+00    0.366E+01
RMM:   8    -0.117430220316E+04    0.25160E+02   -0.39507E+01  1584   0.721E+00    0.231E+01
RMM:   9    -0.117119715778E+04    0.31050E+01   -0.30734E+01  1584   0.633E+00    0.133E+01
RMM:  10    -0.117143661796E+04   -0.23946E+00   -0.15460E+00  1624   0.157E+00    0.935E+00
RMM:  11    -0.117161106041E+04   -0.17444E+00   -0.22346E-01  1605   0.592E-01    0.760E+00
RMM:  12    -0.117095501390E+04    0.65605E+00   -0.22100E+00  1584   0.159E+00    0.213E+00
RMM:  13    -0.117086362250E+04    0.91391E-01   -0.23938E-01  1586   0.564E-01    0.831E-01
RMM:  14    -0.117086380112E+04   -0.17861E-03   -0.16308E-02  1639   0.150E-01    0.595E-01
RMM:  15    -0.117086114614E+04    0.26550E-02   -0.11910E-02  1599   0.110E-01    0.315E-01
RMM:  16    -0.117086029034E+04    0.85579E-03   -0.48567E-03  1584   0.765E-02    0.258E-01
RMM:  17    -0.117085887489E+04    0.14155E-02   -0.17227E-03  1496   0.411E-02    0.125E-01
RMM:  18    -0.117085906692E+04   -0.19203E-03   -0.66714E-04  1238   0.271E-02    0.116E-01
RMM:  19    -0.117085911607E+04   -0.49145E-04   -0.54472E-04  1208   0.241E-02
   1 F= -.11780566E+04 E0= -.11780512E+04  d E =-.117806E+04  mag=     0.1552
       N       E                     dE             d eps       ncg     rms          rms(c)
DAV:   1    -0.117086004444E+04   -0.97752E-03   -0.14362E+00  1584   0.167E+00    0.471E-01
RMM:   2    -0.117086143578E+04   -0.13913E-02   -0.27891E-02  1585   0.223E-01    0.416E-01
RMM:   3    -0.117086052105E+04    0.91473E-03   -0.21620E-03  1653   0.511E-02    0.356E-01
RMM:   4    -0.117085888511E+04    0.16359E-02   -0.36462E-03  1584   0.681E-02    0.173E-01
RMM:   5    -0.117085883919E+04    0.45922E-04   -0.17232E-03  1584   0.465E-02    0.838E-02
RMM:   6    -0.117085882377E+04    0.15413E-04   -0.43291E-05  1015   0.101E-02
   2 F= -.11780564E+04 E0= -.11780512E+04  d E =0.137161E-03  mag=     0.1406
       N       E                     dE             d eps       ncg     rms          rms(c)
DAV:   1    -0.117086264141E+04   -0.38022E-02   -0.37268E-01  1728   0.848E-01    0.232E-01
RMM:   2    -0.117086283791E+04   -0.19650E-03   -0.57520E-03  1587   0.107E-01    0.202E-01
RMM:   3    -0.117086254400E+04    0.29391E-03   -0.44873E-04  1204   0.251E-02    0.167E-01
RMM:   4    -0.117086209698E+04    0.44702E-03   -0.13996E-03  1584   0.425E-02    0.638E-02
RMM:   5    -0.117086211809E+04   -0.21108E-04   -0.19085E-04  1059   0.172E-02
   3 F= -.11780596E+04 E0= -.11780545E+04  d E =-.307545E-02  mag=     0.1402
       N       E                     dE             d eps       ncg     rms          rms(c)
DAV:   1    -0.117086336751E+04   -0.12705E-02   -0.70703E-01  1656   0.128E+00    0.273E-01
RMM:   2    -0.117086385525E+04   -0.48774E-03   -0.11772E-02  1584   0.166E-01    0.233E-01
RMM:   3    -0.117086321017E+04    0.64508E-03   -0.80803E-04  1531   0.366E-02    0.183E-01
RMM:   4    -0.117086256218E+04    0.64799E-03   -0.18004E-03  1584   0.463E-02    0.984E-02
RMM:   5    -0.117086250125E+04    0.60924E-04   -0.50580E-04  1270   0.254E-02
   4 F= -.11780599E+04 E0= -.11780547E+04  d E =-.232109E-03  mag=     0.1351
       N       E                     dE             d eps       ncg     rms          rms(c)
DAV:   1    -0.117086379451E+04   -0.12323E-02   -0.15306E-01  1728   0.593E-01    0.126E-01
RMM:   2    -0.117086384848E+04   -0.53971E-04   -0.25138E-03  1584   0.768E-02    0.106E-01
RMM:   3    -0.117086369771E+04    0.15078E-03   -0.15859E-04  1044   0.174E-02    0.839E-02
RMM:   4    -0.117086351346E+04    0.18424E-03   -0.74529E-04  1533   0.296E-02    0.353E-02
RMM:   5    -0.117086351973E+04   -0.62640E-05   -0.53781E-05   983   0.101E-02
   5 F= -.11780610E+04 E0= -.11780558E+04  d E =-.132162E-02  mag=     0.1384
       N       E                     dE             d eps       ncg     rms          rms(c)
DAV:   1    -0.117086408160E+04   -0.56814E-03   -0.40394E-01  1728   0.961E-01    0.142E-01
RMM:   2    -0.117086447209E+04   -0.39048E-03   -0.59209E-03  1584   0.118E-01    0.127E-01
RMM:   3    -0.117086439347E+04    0.78622E-04   -0.27833E-04  1176   0.237E-02
   6 F= -.11780619E+04 E0= -.11780567E+04  d E =-.905278E-03  mag=     0.1407
       N       E                     dE             d eps       ncg     rms          rms(c)
DAV:   1    -0.117086431850E+04    0.15359E-03   -0.30359E-03  1764   0.850E-02    0.556E-02
RMM:   2    -0.117086434384E+04   -0.25343E-04   -0.17747E-04  1069   0.212E-02
   7 F= -.11780618E+04 E0= -.11780566E+04  d E =-.853434E-03  mag=     0.1396
