       N       E                     dE             d eps       ncg     rms          rms(c)
DAV:   1     0.495184392837E+04    0.49518E+04   -0.17154E+05  1836   0.914E+02
DAV:   2    -0.417828714602E+02   -0.49936E+04   -0.45518E+04  2520   0.210E+02
DAV:   3    -0.119728919736E+04   -0.11555E+04   -0.11494E+04  2160   0.112E+02
DAV:   4    -0.124403862087E+04   -0.46749E+02   -0.46519E+02  2016   0.301E+01
DAV:   5    -0.124535546001E+04   -0.13168E+01   -0.13131E+01  2268   0.471E+00    0.698E+01
RMM:   6    -0.122870496689E+04    0.16650E+02   -0.32469E+01  1604   0.625E+00    0.623E+01
RMM:   7    -0.121438603974E+04    0.14319E+02   -0.56668E+00  1584   0.297E+00    0.476E+01
RMM:   8    -0.118979737775E+04    0.24589E+02   -0.28807E+01  1584   0.629E+00    0.306E+01
RMM:   9    -0.117629675123E+04    0.13501E+02   -0.21459E+01  1588   0.563E+00    0.215E+01
RMM:  10    -0.117602053511E+04    0.27622E+00   -0.20896E+01  1584   0.552E+00    0.115E+01
RMM:  11    -0.117600470456E+04    0.15831E-01   -0.17490E+00  1613   0.238E+00    0.729E+00
RMM:  12    -0.117556948442E+04    0.43522E+00   -0.25200E-01  1590   0.595E-01    0.568E+00
RMM:  13    -0.117523293641E+04    0.33655E+00   -0.13919E+00  1584   0.133E+00    0.182E+00
RMM:  14    -0.117516677307E+04    0.66163E-01   -0.95043E-02  1595   0.536E-01    0.125E+00
RMM:  15    -0.117516067658E+04    0.60965E-02   -0.37899E-02  1592   0.207E-01    0.805E-01
RMM:  16    -0.117515995796E+04    0.71862E-03   -0.61465E-03  1657   0.122E-01    0.594E-01
RMM:  17    -0.117515986076E+04    0.97203E-04   -0.18153E-03  1584   0.505E-02    0.439E-01
RMM:  18    -0.117516030721E+04   -0.44645E-03   -0.23284E-03  1596   0.611E-02    0.273E-01
RMM:  19    -0.117516004729E+04    0.25992E-03   -0.87404E-04  1385   0.406E-02    0.113E-01
RMM:  20    -0.117516002529E+04    0.21995E-04   -0.13036E-04  1066   0.152E-02
   1 F= -.11824856E+04 E0= -.11824856E+04  d E =-.118249E+04  mag=     0.9963
       N       E                     dE             d eps       ncg     rms          rms(c)
DAV:   1    -0.117515866345E+04    0.13838E-02   -0.42567E-01  1692   0.102E+00    0.213E-01
RMM:   2    -0.117515953098E+04   -0.86753E-03   -0.13590E-02  1595   0.167E-01    0.190E-01
RMM:   3    -0.117515918345E+04    0.34753E-03   -0.88177E-04  1520   0.550E-02    0.196E-01
RMM:   4    -0.117515910907E+04    0.74377E-04   -0.12360E-04  1068   0.166E-02
   2 F= -.11824853E+04 E0= -.11824853E+04  d E =0.313143E-03  mag=     0.9996
       N       E                     dE             d eps       ncg     rms          rms(c)
DAV:   1    -0.117515998549E+04   -0.80204E-03   -0.16141E-01  1764   0.626E-01    0.714E-02
RMM:   2    -0.117516050692E+04   -0.52143E-03   -0.54260E-03  1584   0.110E-01    0.635E-02
RMM:   3    -0.117516049389E+04    0.13032E-04   -0.27121E-04  1120   0.325E-02
   3 F= -.11824863E+04 E0= -.11824863E+04  d E =-.717819E-03  mag=     0.9998
