       N       E                     dE             d eps       ncg     rms          rms(c)
DAV:   1     0.474398656459E+04    0.47440E+04   -0.18023E+05  1888   0.956E+02
DAV:   2    -0.787643924758E+02   -0.48228E+04   -0.44232E+04  2464   0.214E+02
DAV:   3    -0.120374097590E+04   -0.11250E+04   -0.11178E+04  1984   0.111E+02
DAV:   4    -0.125111018648E+04   -0.47369E+02   -0.47055E+02  1952   0.300E+01
DAV:   5    -0.125230087834E+04   -0.11907E+01   -0.11873E+01  2176   0.437E+00    0.764E+01
RMM:   6    -0.123287290508E+04    0.19428E+02   -0.38220E+01  1637   0.684E+00    0.554E+01
RMM:   7    -0.122099530021E+04    0.11878E+02   -0.92230E+00  1545   0.417E+00    0.455E+01
RMM:   8    -0.119697100373E+04    0.24024E+02   -0.27961E+01  1619   0.676E+00    0.299E+01
RMM:   9    -0.118211470655E+04    0.14856E+02   -0.26792E+01  1559   0.689E+00    0.199E+01
RMM:  10    -0.118009094424E+04    0.20238E+01   -0.14992E+01  1543   0.524E+00    0.127E+01
RMM:  11    -0.118108473350E+04   -0.99379E+00   -0.34735E+00  1565   0.277E+00    0.745E+00
RMM:  12    -0.118101327610E+04    0.71457E-01   -0.49253E-01  1674   0.114E+00    0.489E+00
RMM:  13    -0.118052835791E+04    0.48492E+00   -0.10874E+00  1539   0.130E+00    0.145E+00
RMM:  14    -0.118054322892E+04   -0.14871E-01   -0.19795E-01  1542   0.662E-01    0.785E-01
RMM:  15    -0.118054505112E+04   -0.18222E-02   -0.17685E-02  1547   0.227E-01    0.292E-01
RMM:  16    -0.118054630915E+04   -0.12580E-02   -0.99980E-03  1611   0.143E-01    0.233E-01
RMM:  17    -0.118054608517E+04    0.22398E-03   -0.25671E-03  1572   0.758E-02    0.124E-01
RMM:  18    -0.118054610032E+04   -0.15153E-04   -0.16267E-03  1546   0.523E-02    0.917E-02
RMM:  19    -0.118054611907E+04   -0.18754E-04   -0.27708E-04  1616   0.247E-02    0.575E-02
RMM:  20    -0.118054617262E+04   -0.53548E-04   -0.15843E-04  1544   0.180E-02    0.404E-02
RMM:  21    -0.118054617498E+04   -0.23630E-05   -0.55109E-05  1560   0.111E-02    0.226E-02
RMM:  22    -0.118054619122E+04   -0.16232E-04   -0.24830E-05  1618   0.706E-03    0.109E-02
RMM:  23    -0.118054619046E+04    0.75158E-06   -0.13800E-05  1537   0.497E-03    0.117E-02
RMM:  24    -0.118054618811E+04    0.23590E-05   -0.59658E-06  1512   0.324E-03    0.380E-03
RMM:  25    -0.118054618842E+04   -0.31321E-06   -0.13137E-06  1017   0.174E-03
   1 F= -.11877058E+04 E0= -.11877058E+04  d E =-.118771E+04  mag=     1.9999
       N       E                     dE             d eps       ncg     rms          rms(c)
DAV:   1    -0.118054401135E+04    0.21768E-02   -0.30075E-01  1664   0.117E+00    0.169E-01
RMM:   2    -0.118054536813E+04   -0.13568E-02   -0.14790E-02  1666   0.174E-01    0.132E-01
RMM:   3    -0.118054567585E+04   -0.30771E-03   -0.37353E-03  1785   0.711E-02    0.100E-01
RMM:   4    -0.118054567578E+04    0.69333E-07   -0.47246E-04  1927   0.278E-02    0.852E-02
RMM:   5    -0.118054563684E+04    0.38939E-04   -0.17595E-04  1588   0.177E-02    0.513E-02
RMM:   6    -0.118054564806E+04   -0.11220E-04   -0.18628E-04  1565   0.174E-02    0.279E-02
RMM:   7    -0.118054564464E+04    0.34133E-05   -0.22962E-05  1558   0.784E-03    0.151E-02
RMM:   8    -0.118054564658E+04   -0.19380E-05   -0.12798E-05  1538   0.473E-03    0.896E-03
RMM:   9    -0.118054564575E+04    0.82923E-06   -0.38342E-06  1252   0.266E-03
   2 F= -.11877058E+04 E0= -.11877058E+04  d E =-.756326E-04  mag=     2.0000
       N       E                     dE             d eps       ncg     rms          rms(c)
DAV:   1    -0.118054614880E+04   -0.50222E-03   -0.70397E-02  1792   0.566E-01    0.822E-02
RMM:   2    -0.118054643301E+04   -0.28421E-03   -0.31262E-03  1641   0.814E-02    0.638E-02
RMM:   3    -0.118054649467E+04   -0.61667E-04   -0.76306E-04  1692   0.325E-02    0.474E-02
RMM:   4    -0.118054649522E+04   -0.54795E-06   -0.10719E-04  1858   0.133E-02    0.401E-02
RMM:   5    -0.118054648523E+04    0.99946E-05   -0.38486E-05  1563   0.832E-03    0.239E-02
RMM:   6    -0.118054648595E+04   -0.72286E-06   -0.36489E-05  1540   0.787E-03    0.125E-02
RMM:   7    -0.118054648563E+04    0.32262E-06   -0.46059E-06  1450   0.361E-03
   3 F= -.11877064E+04 E0= -.11877064E+04  d E =-.616366E-03  mag=     2.0000
       N       E                     dE             d eps       ncg     rms          rms(c)
DAV:   1    -0.118054583303E+04    0.65292E-03   -0.17846E-01  1920   0.831E-01    0.123E-01
RMM:   2    -0.118054639546E+04   -0.56243E-03   -0.66544E-03  1645   0.116E-01    0.969E-02
RMM:   3    -0.118054653708E+04   -0.14162E-03   -0.16376E-03  1710   0.469E-02    0.727E-02
RMM:   4    -0.118054655374E+04   -0.16663E-04   -0.22168E-04  1851   0.189E-02    0.629E-02
RMM:   5    -0.118054655629E+04   -0.25457E-05   -0.57563E-05  1573   0.105E-02    0.404E-02
RMM:   6    -0.118054657151E+04   -0.15227E-04   -0.72842E-05  1549   0.113E-02    0.183E-02
RMM:   7    -0.118054657512E+04   -0.36029E-05   -0.95184E-06  1590   0.509E-03    0.993E-03
RMM:   8    -0.118054657583E+04   -0.71868E-06   -0.35099E-06  1215   0.261E-03
   4 F= -.11877070E+04 E0= -.11877070E+04  d E =-.583333E-03  mag=     2.0000
