       N       E                     dE             d eps       ncg     rms          rms(c)
DAV:   1     0.498023438994E+04    0.49802E+04   -0.17028E+05  1800   0.910E+02
DAV:   2    -0.257865703520E+02   -0.50060E+04   -0.45632E+04  2520   0.211E+02
DAV:   3    -0.117364827738E+04   -0.11479E+04   -0.11425E+04  2160   0.111E+02
DAV:   4    -0.121991215472E+04   -0.46264E+02   -0.46056E+02  2016   0.293E+01
DAV:   5    -0.122108752266E+04   -0.11754E+01   -0.11731E+01  2376   0.429E+00    0.596E+01
RMM:   6    -0.120960510445E+04    0.11482E+02   -0.65333E+00  1584   0.300E+00    0.490E+01
RMM:   7    -0.117267153828E+04    0.36934E+02   -0.50088E+01  1584   0.820E+00    0.293E+01
RMM:   8    -0.116122397442E+04    0.11448E+02   -0.22552E+01  1584   0.547E+00    0.197E+01
RMM:   9    -0.116088608910E+04    0.33789E+00   -0.23082E+01  1584   0.547E+00    0.915E+00
RMM:  10    -0.116028637672E+04    0.59971E+00   -0.88688E-01  1604   0.126E+00    0.407E+00
RMM:  11    -0.115998503679E+04    0.30134E+00   -0.10854E+00  1584   0.115E+00    0.179E+00
RMM:  12    -0.115998759383E+04   -0.25570E-02   -0.94574E-02  1591   0.376E-01    0.620E-01
RMM:  13    -0.115998485886E+04    0.27350E-02   -0.40102E-02  1584   0.234E-01    0.393E-01
RMM:  14    -0.115998376762E+04    0.10912E-02   -0.11452E-02  1584   0.119E-01    0.166E-01
RMM:  15    -0.115998377600E+04   -0.83814E-05   -0.20310E-03  1570   0.492E-02    0.122E-01
RMM:  16    -0.115998401517E+04   -0.23917E-03   -0.65236E-04  1406   0.306E-02    0.841E-02
RMM:  17    -0.115998424199E+04   -0.22681E-03   -0.62121E-04  1375   0.306E-02    0.628E-02
RMM:  18    -0.115998431291E+04   -0.70925E-04   -0.38863E-04  1278   0.250E-02
   1 F= -.11670817E+04 E0= -.11670745E+04  d E =-.116708E+04  mag=    -0.7575
       N       E                     dE             d eps       ncg     rms          rms(c)
DAV:   1    -0.115998351570E+04    0.72628E-03   -0.35687E-01  1692   0.960E-01    0.152E-01
RMM:   2    -0.115998443181E+04   -0.91610E-03   -0.11358E-02  1584   0.145E-01    0.147E-01
RMM:   3    -0.115998431647E+04    0.11534E-03   -0.62897E-04  1398   0.323E-02    0.139E-01
RMM:   4    -0.115998376075E+04    0.55571E-03   -0.19976E-03  1584   0.481E-02    0.565E-02
RMM:   5    -0.115998376761E+04   -0.68572E-05   -0.26382E-04  1139   0.201E-02
   2 F= -.11670812E+04 E0= -.11670745E+04  d E =0.470109E-03  mag=    -0.7799
       N       E                     dE             d eps       ncg     rms          rms(c)
DAV:   1    -0.115998513550E+04   -0.13748E-02   -0.12559E-01  1620   0.566E-01    0.798E-02
RMM:   2    -0.115998527524E+04   -0.13974E-03   -0.24340E-03  1584   0.736E-02    0.764E-02
RMM:   3    -0.115998520865E+04    0.66594E-04   -0.11057E-04  1055   0.155E-02
   3 F= -.11670826E+04 E0= -.11670760E+04  d E =-.924616E-03  mag=    -0.7831
