       N       E                     dE             d eps       ncg     rms          rms(c)
DAV:   1     0.483602644685E+04    0.48360E+04   -0.17611E+05  1856   0.946E+02
DAV:   2    -0.398110444752E+02   -0.48758E+04   -0.44434E+04  2400   0.211E+02
DAV:   3    -0.119611386138E+04   -0.11563E+04   -0.11512E+04  2016   0.113E+02
DAV:   4    -0.124438536002E+04   -0.48271E+02   -0.47978E+02  1952   0.304E+01
DAV:   5    -0.124559272869E+04   -0.12074E+01   -0.12046E+01  2336   0.439E+00    0.722E+01
RMM:   6    -0.122948470125E+04    0.16108E+02   -0.97702E+00  1615   0.377E+00    0.553E+01
RMM:   7    -0.119801293274E+04    0.31472E+02   -0.50136E+01  1566   0.847E+00    0.330E+01
RMM:   8    -0.118497572899E+04    0.13037E+02   -0.19107E+01  1548   0.593E+00    0.251E+01
RMM:   9    -0.117861537370E+04    0.63604E+01   -0.17032E+01  1546   0.543E+00    0.159E+01
RMM:  10    -0.118024909707E+04   -0.16337E+01   -0.13489E+01  1543   0.484E+00    0.815E+00
RMM:  11    -0.117939621190E+04    0.85289E+00   -0.16258E+00  1607   0.198E+00    0.564E+00
RMM:  12    -0.117907211932E+04    0.32409E+00   -0.83175E-01  1547   0.122E+00    0.193E+00
RMM:  13    -0.117901748755E+04    0.54632E-01   -0.32232E-01  1556   0.773E-01    0.892E-01
RMM:  14    -0.117901673724E+04    0.75031E-03   -0.72691E-02  1641   0.397E-01    0.434E-01
RMM:  15    -0.117901551201E+04    0.12252E-02   -0.16289E-02  1776   0.190E-01    0.254E-01
RMM:  16    -0.117901560486E+04   -0.92853E-04   -0.72499E-03  1582   0.115E-01    0.175E-01
RMM:  17    -0.117901551159E+04    0.93269E-04   -0.17069E-03  1632   0.624E-02    0.757E-02
RMM:  18    -0.117901550072E+04    0.10867E-04   -0.53859E-04  1564   0.334E-02    0.670E-02
RMM:  19    -0.117901551671E+04   -0.15984E-04   -0.22210E-04  1690   0.204E-02    0.319E-02
RMM:  20    -0.117901552422E+04   -0.75169E-05   -0.13068E-04  1547   0.151E-02    0.274E-02
RMM:  21    -0.117901552131E+04    0.29142E-05   -0.39715E-05  1556   0.872E-03    0.975E-03
RMM:  22    -0.117901552444E+04   -0.31339E-05   -0.12918E-05  1585   0.517E-03    0.656E-03
RMM:  23    -0.117901552291E+04    0.15331E-05   -0.63602E-06  1520   0.331E-03    0.519E-03
RMM:  24    -0.117901552289E+04    0.23421E-07   -0.15751E-06  1029   0.181E-03
   1 F= -.11861747E+04 E0= -.11861747E+04  d E =-.118617E+04  mag=     1.0001
       N       E                     dE             d eps       ncg     rms          rms(c)
DAV:   1    -0.117901415977E+04    0.13631E-02   -0.25011E-01  1664   0.848E-01    0.123E-01
RMM:   2    -0.117901479958E+04   -0.63981E-03   -0.75248E-03  1674   0.132E-01    0.113E-01
RMM:   3    -0.117901485689E+04   -0.57304E-04   -0.16117E-03  1902   0.571E-02    0.103E-01
RMM:   4    -0.117901469405E+04    0.16284E-03   -0.68383E-04  1613   0.345E-02    0.516E-02
RMM:   5    -0.117901470823E+04   -0.14180E-04   -0.28089E-04  1684   0.220E-02    0.352E-02
RMM:   6    -0.117901468116E+04    0.27068E-04   -0.69462E-05  1584   0.109E-02    0.171E-02
RMM:   7    -0.117901468473E+04   -0.35705E-05   -0.20624E-05  1641   0.630E-03    0.963E-03
RMM:   8    -0.117901468280E+04    0.19317E-05   -0.70983E-06  1545   0.355E-03    0.615E-03
RMM:   9    -0.117901468298E+04   -0.18039E-06   -0.10875E-05  1506   0.380E-03    0.430E-03
RMM:  10    -0.117901468231E+04    0.66993E-06   -0.18701E-06  1027   0.182E-03
   2 F= -.11861744E+04 E0= -.11861744E+04  d E =0.280101E-03  mag=     1.0000
       N       E                     dE             d eps       ncg     rms          rms(c)
DAV:   1    -0.117901564916E+04   -0.96618E-03   -0.79064E-02  1664   0.474E-01    0.703E-02
RMM:   2    -0.117901577809E+04   -0.12893E-03   -0.16978E-03  1637   0.698E-02    0.630E-02
RMM:   3    -0.117901576907E+04    0.90150E-05   -0.33492E-04  1690   0.291E-02    0.532E-02
RMM:   4    -0.117901573199E+04    0.37087E-04   -0.24531E-04  1616   0.205E-02    0.241E-02
RMM:   5    -0.117901573342E+04   -0.14293E-05   -0.51060E-05  1958   0.985E-03    0.182E-02
RMM:   6    -0.117901572810E+04    0.53158E-05   -0.15907E-05  1523   0.471E-03    0.873E-03
RMM:   7    -0.117901572909E+04   -0.98882E-06   -0.33700E-06  1232   0.267E-03
   3 F= -.11861752E+04 E0= -.11861752E+04  d E =-.452095E-03  mag=     1.0000
