       N       E                     dE             d eps       ncg     rms          rms(c)
DAV:   1     0.523410586260E+04    0.52341E+04   -0.16896E+05  1764   0.916E+02
DAV:   2     0.461373142210E+02   -0.51880E+04   -0.47203E+04  2520   0.219E+02
DAV:   3    -0.118109585742E+04   -0.12272E+04   -0.12204E+04  2160   0.117E+02
DAV:   4    -0.123613876540E+04   -0.55043E+02   -0.54686E+02  2016   0.333E+01
DAV:   5    -0.123850959667E+04   -0.23708E+01   -0.23658E+01  2556   0.676E+00    0.602E+01
RMM:   6    -0.122556219674E+04    0.12947E+02   -0.62235E+00  1764   0.332E+00    0.489E+01
RMM:   7    -0.118418285903E+04    0.41379E+02   -0.59292E+01  1970   0.101E+01    0.286E+01
RMM:   8    -0.117306313143E+04    0.11120E+02   -0.30304E+01  1959   0.880E+00    0.154E+01
RMM:   9    -0.117411018210E+04   -0.10471E+01   -0.15572E+01  1957   0.767E+00    0.917E+00
RMM:  10    -0.117355675653E+04    0.55343E+00   -0.20186E+00  1986   0.353E+00    0.474E+00
RMM:  11    -0.117323136617E+04    0.32539E+00   -0.13706E+00  1967   0.180E+00    0.188E+00
RMM:  12    -0.117321343065E+04    0.17936E-01   -0.17286E-01  1973   0.953E-01    0.928E-01
RMM:  13    -0.117321115997E+04    0.22707E-02   -0.14045E-01  1914   0.582E-01    0.487E-01
RMM:  14    -0.117320366125E+04    0.74987E-02   -0.37040E-02  1901   0.444E-01    0.230E-01
RMM:  15    -0.117320507132E+04   -0.14101E-02   -0.12600E-02  1997   0.220E-01    0.248E-01
RMM:  16    -0.117320454250E+04    0.52883E-03   -0.78708E-03  1878   0.134E-01    0.146E-01
RMM:  17    -0.117320435374E+04    0.18876E-03   -0.14284E-03  1702   0.119E-01    0.734E-02
RMM:  18    -0.117320445185E+04   -0.98116E-04   -0.38659E-04  1263   0.711E-02
   1 F= -.11808970E+04 E0= -.11808970E+04  d E =-.118090E+04  mag=     1.0004
       N       E                     dE             d eps       ncg     rms          rms(c)
DAV:   1    -0.117320550516E+04   -0.11514E-02   -0.50174E-01  1908   0.104E+00    0.219E-01
RMM:   2    -0.117320615149E+04   -0.64633E-03   -0.13693E-02  1947   0.177E-01    0.195E-01
RMM:   3    -0.117320568664E+04    0.46485E-03   -0.10157E-03  1497   0.883E-02    0.165E-01
RMM:   4    -0.117320471750E+04    0.96913E-03   -0.41074E-03  2008   0.968E-02    0.546E-02
RMM:   5    -0.117320474299E+04   -0.25484E-04   -0.25282E-04  1141   0.436E-02
   2 F= -.11808977E+04 E0= -.11808977E+04  d E =-.650216E-03  mag=     1.0001
       N       E                     dE             d eps       ncg     rms          rms(c)
DAV:   1    -0.117320549751E+04   -0.78000E-03   -0.70898E-02  1980   0.394E-01    0.717E-02
RMM:   2    -0.117320557126E+04   -0.73751E-04   -0.16362E-03  1615   0.586E-02    0.616E-02
RMM:   3    -0.117320551386E+04    0.57399E-04   -0.13437E-04  1042   0.500E-02
   3 F= -.11808983E+04 E0= -.11808983E+04  d E =-.128513E-02  mag=     1.0000
       N       E                     dE             d eps       ncg     rms          rms(c)
DAV:   1    -0.117320640526E+04   -0.83400E-03   -0.21389E-01  1836   0.731E-01    0.148E-01
RMM:   2    -0.117320677902E+04   -0.37376E-03   -0.63505E-03  1876   0.126E-01    0.134E-01
RMM:   3    -0.117320665609E+04    0.12293E-03   -0.47837E-04  1212   0.703E-02    0.114E-01
RMM:   4    -0.117320634858E+04    0.30750E-03   -0.11173E-03  1748   0.582E-02    0.550E-02
RMM:   5    -0.117320633625E+04    0.12328E-04   -0.15955E-04  1071   0.426E-02
   4 F= -.11808985E+04 E0= -.11808985E+04  d E =-.163902E-03  mag=     1.0000
       N       E                     dE             d eps       ncg     rms          rms(c)
DAV:   1    -0.117320664177E+04   -0.29318E-03   -0.64931E-02  1872   0.401E-01    0.788E-02
RMM:   2    -0.117320672560E+04   -0.83830E-04   -0.18799E-03  1722   0.666E-02    0.711E-02
RMM:   3    -0.117320666918E+04    0.56420E-04   -0.14098E-04  1032   0.514E-02
   5 F= -.11808991E+04 E0= -.11808991E+04  d E =-.841229E-03  mag=     1.0000
