       N       E                     dE             d eps       ncg     rms          rms(c)
DAV:   1     0.481145756433E+04    0.48115E+04   -0.17263E+05  1872   0.906E+02
DAV:   2    -0.826035854880E+02   -0.48941E+04   -0.44515E+04  2520   0.204E+02
DAV:   3    -0.119277281469E+04   -0.11102E+04   -0.11057E+04  2124   0.108E+02
DAV:   4    -0.123754274115E+04   -0.44770E+02   -0.44541E+02  2052   0.286E+01
DAV:   5    -0.123871043718E+04   -0.11677E+01   -0.11657E+01  2376   0.437E+00    0.662E+01
RMM:   6    -0.122105570844E+04    0.17655E+02   -0.19156E+01  1730   0.413E+00    0.508E+01
RMM:   7    -0.119739034425E+04    0.23665E+02   -0.21304E+01  1591   0.518E+00    0.363E+01
RMM:   8    -0.117406589510E+04    0.23324E+02   -0.35906E+01  1585   0.675E+00    0.236E+01
RMM:   9    -0.117046510615E+04    0.36008E+01   -0.32438E+01  1586   0.636E+00    0.109E+01
RMM:  10    -0.117126811745E+04   -0.80301E+00   -0.27741E+00  1666   0.207E+00    0.808E+00
RMM:  11    -0.117049162525E+04    0.77649E+00   -0.15089E+00  1609   0.124E+00    0.385E+00
RMM:  12    -0.117023328150E+04    0.25834E+00   -0.37957E-01  1636   0.674E-01    0.187E+00
RMM:  13    -0.117019713198E+04    0.36150E-01   -0.31279E-01  1610   0.602E-01    0.482E-01
RMM:  14    -0.117019238370E+04    0.47483E-02   -0.11572E-02  1709   0.159E-01    0.319E-01
RMM:  15    -0.117019184883E+04    0.53487E-03   -0.32712E-03  1632   0.595E-02    0.237E-01
RMM:  16    -0.117019235001E+04   -0.50119E-03   -0.30805E-03  1598   0.652E-02    0.159E-01
RMM:  17    -0.117019227074E+04    0.79273E-04   -0.53090E-04  1318   0.278E-02
   1 F= -.11774789E+04 E0= -.11774777E+04  d E =-.117748E+04  mag=    -0.9725
       N       E                     dE             d eps       ncg     rms          rms(c)
DAV:   1    -0.117019113664E+04    0.12134E-02   -0.31998E-01  1692   0.943E-01    0.223E-01
RMM:   2    -0.117019288864E+04   -0.17520E-02   -0.23037E-02  1820   0.194E-01    0.194E-01
RMM:   3    -0.117019253968E+04    0.34897E-03   -0.14141E-03  1489   0.534E-02    0.224E-01
RMM:   4    -0.117019254836E+04   -0.86803E-05   -0.20429E-04  1101   0.166E-02
   2 F= -.11774796E+04 E0= -.11774783E+04  d E =-.707557E-03  mag=    -0.9727
       N       E                     dE             d eps       ncg     rms          rms(c)
DAV:   1    -0.117019242246E+04    0.11722E-03   -0.47720E-02  1584   0.363E-01    0.192E-01
RMM:   2    -0.117019268245E+04   -0.26000E-03   -0.33855E-03  1808   0.748E-02    0.141E-01
RMM:   3    -0.117019257299E+04    0.10946E-03   -0.37094E-04  1193   0.266E-02    0.620E-02
RMM:   4    -0.117019253466E+04    0.38332E-04   -0.14037E-04  1055   0.167E-02
   3 F= -.11774794E+04 E0= -.11774782E+04  d E =-.527017E-03  mag=    -0.9731
