       N       E                     dE             d eps       ncg     rms          rms(c)
DAV:   1     0.494004226644E+04    0.49400E+04   -0.17538E+05  1872   0.923E+02
DAV:   2    -0.548950339562E+02   -0.49949E+04   -0.45758E+04  2592   0.208E+02
DAV:   3    -0.120148790455E+04   -0.11466E+04   -0.11420E+04  2088   0.110E+02
DAV:   4    -0.124802788127E+04   -0.46540E+02   -0.46281E+02  2052   0.290E+01
DAV:   5    -0.124917950527E+04   -0.11516E+01   -0.11494E+01  2340   0.412E+00    0.833E+01
RMM:   6    -0.123657215909E+04    0.12607E+02   -0.73038E+00  1584   0.308E+00    0.726E+01
RMM:   7    -0.118803246212E+04    0.48540E+02   -0.92424E+01  1584   0.108E+01    0.457E+01
RMM:   8    -0.118529111875E+04    0.27413E+01   -0.56595E+01  1584   0.851E+00    0.182E+01
RMM:   9    -0.118839543465E+04   -0.31043E+01   -0.83039E+00  1596   0.334E+00    0.118E+01
RMM:  10    -0.118421619261E+04    0.41792E+01   -0.97542E+00  1584   0.335E+00    0.482E+00
RMM:  11    -0.118409408246E+04    0.12211E+00   -0.44076E-01  1588   0.751E-01    0.235E+00
RMM:  12    -0.118401128236E+04    0.82800E-01   -0.23744E-01  1584   0.539E-01    0.159E+00
RMM:  13    -0.118398928063E+04    0.22002E-01   -0.11833E-01  1584   0.375E-01    0.532E-01
RMM:  14    -0.118398543829E+04    0.38423E-02   -0.25733E-02  1592   0.168E-01    0.578E-01
RMM:  15    -0.118398498094E+04    0.45735E-03   -0.18508E-03  1596   0.497E-02    0.425E-01
RMM:  16    -0.118398503133E+04   -0.50385E-04   -0.14428E-03  1584   0.429E-02    0.233E-01
RMM:  17    -0.118398520461E+04   -0.17329E-03   -0.23187E-04  1116   0.190E-02    0.124E-01
RMM:  18    -0.118398522795E+04   -0.23340E-04   -0.11759E-04  1056   0.139E-02
   1 F= -.11914385E+04 E0= -.11914385E+04  d E =-.119144E+04  mag=     0.0008
       N       E                     dE             d eps       ncg     rms          rms(c)
DAV:   1    -0.118398257408E+04    0.26305E-02   -0.86102E-01  1620   0.136E+00    0.574E-01
RMM:   2    -0.118398430799E+04   -0.17339E-02   -0.25878E-02  1584   0.203E-01    0.550E-01
RMM:   3    -0.118398398931E+04    0.31868E-03   -0.11101E-03  1486   0.411E-02    0.522E-01
RMM:   4    -0.118398368056E+04    0.30876E-03   -0.15990E-03  1558   0.441E-02    0.280E-01
RMM:   5    -0.118398412570E+04   -0.44515E-03   -0.18081E-03  1584   0.466E-02    0.116E-01
RMM:   6    -0.118398391007E+04    0.21563E-03   -0.53844E-04  1377   0.222E-02    0.383E-02
RMM:   7    -0.118398390492E+04    0.51509E-05   -0.30351E-05  1004   0.772E-03
   2 F= -.11914380E+04 E0= -.11914380E+04  d E =0.518224E-03  mag=    -0.0000
       N       E                     dE             d eps       ncg     rms          rms(c)
DAV:   1    -0.118398596881E+04   -0.20587E-02   -0.26578E-01  1656   0.756E-01    0.321E-01
RMM:   2    -0.118398632130E+04   -0.35249E-03   -0.70551E-03  1584   0.108E-01    0.300E-01
RMM:   3    -0.118398618201E+04    0.13929E-03   -0.26306E-04  1142   0.210E-02    0.276E-01
RMM:   4    -0.118398615707E+04    0.24938E-04   -0.87297E-04  1539   0.328E-02
   3 F= -.11914398E+04 E0= -.11914398E+04  d E =-.128264E-02  mag=     0.0000
       N       E                     dE             d eps       ncg     rms          rms(c)
DAV:   1    -0.118398577147E+04    0.41054E-03   -0.68453E-01  1656   0.119E+00    0.500E-01
RMM:   2    -0.118398651507E+04   -0.74360E-03   -0.14750E-02  1584   0.158E-01    0.460E-01
RMM:   3    -0.118398624496E+04    0.27011E-03   -0.58663E-04  1241   0.315E-02    0.421E-01
RMM:   4    -0.118398616015E+04    0.84806E-04   -0.14600E-03  1540   0.399E-02    0.199E-01
RMM:   5    -0.118398645495E+04   -0.29480E-03   -0.66365E-04  1423   0.278E-02    0.105E-01
RMM:   6    -0.118398635035E+04    0.10460E-03   -0.43113E-04  1216   0.193E-02    0.263E-02
RMM:   7    -0.118398634793E+04    0.24284E-05   -0.17866E-05   998   0.644E-03
   4 F= -.11914404E+04 E0= -.11914404E+04  d E =-.621035E-03  mag=    -0.0000
       N       E                     dE             d eps       ncg     rms          rms(c)
DAV:   1    -0.118398683374E+04   -0.48339E-03   -0.11757E-01  1728   0.494E-01    0.220E-01
RMM:   2    -0.118398691323E+04   -0.79490E-04   -0.25092E-03  1584   0.650E-02    0.197E-01
RMM:   3    -0.118398685590E+04    0.57334E-04   -0.84984E-05  1035   0.128E-02
   5 F= -.11914408E+04 E0= -.11914408E+04  d E =-.948664E-03  mag=     0.0000
