       N       E                     dE             d eps       ncg     rms          rms(c)
DAV:   1     0.497016505739E+04    0.49702E+04   -0.17262E+05  1836   0.914E+02
DAV:   2    -0.578096749677E+02   -0.50280E+04   -0.45979E+04  2556   0.210E+02
DAV:   3    -0.119524033895E+04   -0.11374E+04   -0.11325E+04  2124   0.110E+02
DAV:   4    -0.124258075805E+04   -0.47340E+02   -0.47106E+02  2124   0.291E+01
DAV:   5    -0.124400836000E+04   -0.14276E+01   -0.14246E+01  2556   0.426E+00    0.634E+01
RMM:   6    -0.123010162772E+04    0.13907E+02   -0.80529E+00  1586   0.315E+00    0.516E+01
RMM:   7    -0.118732891741E+04    0.42773E+02   -0.74963E+01  1585   0.945E+00    0.288E+01
RMM:   8    -0.117785020981E+04    0.94787E+01   -0.31061E+01  1596   0.626E+00    0.162E+01
RMM:   9    -0.117752962269E+04    0.32059E+00   -0.11247E+01  1586   0.384E+00    0.101E+01
RMM:  10    -0.117775625284E+04   -0.22663E+00   -0.13743E+00  1615   0.137E+00    0.727E+00
RMM:  11    -0.117697504942E+04    0.78120E+00   -0.17884E+00  1584   0.143E+00    0.273E+00
RMM:  12    -0.117687488437E+04    0.10017E+00   -0.27920E-01  1588   0.595E-01    0.157E+00
RMM:  13    -0.117685255163E+04    0.22333E-01   -0.10942E-01  1614   0.313E-01    0.517E-01
RMM:  14    -0.117685066260E+04    0.18890E-02   -0.28830E-02  1612   0.189E-01    0.269E-01
RMM:  15    -0.117684973427E+04    0.92833E-03   -0.45455E-03  1610   0.696E-02    0.150E-01
RMM:  16    -0.117684962459E+04    0.10967E-03   -0.10795E-03  1457   0.339E-02    0.102E-01
RMM:  17    -0.117684992887E+04   -0.30427E-03   -0.70994E-04  1594   0.330E-02    0.842E-02
RMM:  18    -0.117684990443E+04    0.24437E-04   -0.19867E-04  1098   0.165E-02
   1 F= -.11839983E+04 E0= -.11839962E+04  d E =-.118400E+04  mag=    -0.9988
       N       E                     dE             d eps       ncg     rms          rms(c)
DAV:   1    -0.117684506443E+04    0.48644E-02   -0.46338E+00  1620   0.214E+00    0.104E+00
RMM:   2    -0.117685247239E+04   -0.74080E-02   -0.10969E-01  1620   0.285E-01    0.968E-01
RMM:   3    -0.117684903145E+04    0.34409E-02   -0.49891E-03  1605   0.580E-02    0.854E-01
RMM:   4    -0.117684846326E+04    0.56819E-03   -0.13839E-02  1592   0.925E-02    0.342E-01
RMM:   5    -0.117684787356E+04    0.58970E-03   -0.14545E-03  1242   0.298E-02    0.120E-01
RMM:   6    -0.117684752270E+04    0.35087E-03   -0.11472E-03  1291   0.244E-02    0.643E-02
RMM:   7    -0.117684745047E+04    0.72229E-04   -0.19650E-04  1083   0.134E-02
   2 F= -.11839972E+04 E0= -.11839955E+04  d E =0.103873E-02  mag=    -0.9981
       N       E                     dE             d eps       ncg     rms          rms(c)
DAV:   1    -0.117685493233E+04   -0.74096E-02   -0.11974E+00  1620   0.112E+00    0.520E-01
RMM:   2    -0.117685627507E+04   -0.13427E-02   -0.22954E-02  1621   0.138E-01    0.504E-01
RMM:   3    -0.117685542980E+04    0.84527E-03   -0.89166E-04  1238   0.255E-02    0.453E-01
RMM:   4    -0.117685505837E+04    0.37143E-03   -0.31117E-03  1501   0.420E-02    0.191E-01
RMM:   5    -0.117685506875E+04   -0.10378E-04   -0.43669E-04  1089   0.170E-02
   3 F= -.11840041E+04 E0= -.11840022E+04  d E =-.585111E-02  mag=    -0.9979
       N       E                     dE             d eps       ncg     rms          rms(c)
DAV:   1    -0.117685653608E+04   -0.14777E-02   -0.19420E+00  1728   0.158E+00    0.599E-01
RMM:   2    -0.117685862571E+04   -0.20896E-02   -0.32876E-02  1595   0.194E-01    0.556E-01
RMM:   3    -0.117685735803E+04    0.12677E-02   -0.17957E-03  1492   0.429E-02    0.460E-01
RMM:   4    -0.117685710917E+04    0.24886E-03   -0.79691E-03  1584   0.732E-02    0.176E-01
RMM:   5    -0.117685675800E+04    0.35117E-03   -0.33711E-04  1132   0.188E-02    0.917E-02
RMM:   6    -0.117685668796E+04    0.70034E-04   -0.46921E-04  1129   0.167E-02
   4 F= -.11840068E+04 E0= -.11840050E+04  d E =-.273023E-02  mag=    -0.9980
       N       E                     dE             d eps       ncg     rms          rms(c)
DAV:   1    -0.117685842553E+04   -0.16675E-02   -0.27031E-01  1728   0.604E-01    0.224E-01
RMM:   2    -0.117685875284E+04   -0.32731E-03   -0.54078E-03  1549   0.729E-02    0.208E-01
RMM:   3    -0.117685853535E+04    0.21750E-03   -0.20701E-04  1080   0.162E-02    0.175E-01
RMM:   4    -0.117685845636E+04    0.78988E-04   -0.13923E-03  1464   0.331E-02    0.620E-02
RMM:   5    -0.117685841156E+04    0.44798E-04   -0.48935E-05  1019   0.875E-03
   5 F= -.11840081E+04 E0= -.11840062E+04  d E =-.404297E-02  mag=    -0.9980
       N       E                     dE             d eps       ncg     rms          rms(c)
DAV:   1    -0.117686050241E+04   -0.20461E-02   -0.48382E-01  1728   0.967E-01    0.205E-01
RMM:   2    -0.117686090945E+04   -0.40704E-03   -0.84983E-03  1584   0.125E-01    0.176E-01
RMM:   3    -0.117686056846E+04    0.34099E-03   -0.41412E-04  1218   0.252E-02    0.143E-01
RMM:   4    -0.117686034008E+04    0.22837E-03   -0.11419E-03  1552   0.351E-02    0.627E-02
RMM:   5    -0.117686035507E+04   -0.14987E-04   -0.17515E-04  1086   0.157E-02
   6 F= -.11840105E+04 E0= -.11840083E+04  d E =-.238128E-02  mag=    -0.9974
       N       E                     dE             d eps       ncg     rms          rms(c)
DAV:   1    -0.117686032030E+04    0.19785E-04   -0.11047E-02  1800   0.147E-01    0.411E-02
RMM:   2    -0.117686033032E+04   -0.10027E-04   -0.25119E-04  1089   0.236E-02
   7 F= -.11840106E+04 E0= -.11840082E+04  d E =-.242235E-02  mag=    -0.9973
       N       E                     dE             d eps       ncg     rms          rms(c)
DAV:   1    -0.117686162987E+04   -0.13096E-02   -0.35025E-01  1728   0.824E-01    0.214E-01
RMM:   2    -0.117686190488E+04   -0.27501E-03   -0.65128E-03  1584   0.109E-01    0.183E-01
RMM:   3    -0.117686172569E+04    0.17920E-03   -0.35275E-04  1186   0.228E-02    0.153E-01
RMM:   4    -0.117686169817E+04    0.27521E-04   -0.77394E-04  1442   0.289E-02
   8 F= -.11840121E+04 E0= -.11840093E+04  d E =-.151187E-02  mag=    -0.9967
       N       E                     dE             d eps       ncg     rms          rms(c)
DAV:   1    -0.117686170036E+04    0.25329E-04   -0.82388E-03  1836   0.127E-01    0.527E-02
RMM:   2    -0.117686169344E+04    0.69216E-05   -0.14685E-04  1042   0.174E-02
   9 F= -.11840121E+04 E0= -.11840092E+04  d E =-.152985E-02  mag=    -0.9965
       N       E                     dE             d eps       ncg     rms          rms(c)
DAV:   1    -0.117686281561E+04   -0.11152E-02   -0.17583E-01  1728   0.623E-01    0.147E-01
RMM:   2    -0.117686292928E+04   -0.11367E-03   -0.30583E-03  1591   0.796E-02    0.126E-01
RMM:   3    -0.117686286770E+04    0.61575E-04   -0.16313E-04  1096   0.173E-02
  10 F= -.11840133E+04 E0= -.11840100E+04  d E =-.121608E-02  mag=    -0.9957
       N       E                     dE             d eps       ncg     rms          rms(c)
DAV:   1    -0.117686286918E+04    0.60099E-04   -0.34565E-01  1584   0.873E-01    0.213E-01
RMM:   2    -0.117686306903E+04   -0.19985E-03   -0.55266E-03  1589   0.107E-01    0.179E-01
RMM:   3    -0.117686298102E+04    0.88017E-04   -0.30335E-04  1190   0.230E-02
  11 F= -.11840135E+04 E0= -.11840095E+04  d E =-.139162E-02  mag=    -0.9945
       N       E                     dE             d eps       ncg     rms          rms(c)
DAV:   1    -0.117686352119E+04   -0.45216E-03   -0.52862E-02  1728   0.323E-01    0.100E-01
RMM:   2    -0.117686351268E+04    0.85128E-05   -0.74910E-04  1374   0.383E-02
  12 F= -.11840141E+04 E0= -.11840099E+04  d E =-.587273E-03  mag=    -0.9941
       N       E                     dE             d eps       ncg     rms          rms(c)
DAV:   1    -0.117686417416E+04   -0.65297E-03   -0.25492E-01  1656   0.706E-01    0.213E-01
RMM:   2    -0.117686428960E+04   -0.11544E-03   -0.42413E-03  1585   0.889E-02    0.189E-01
RMM:   3    -0.117686417089E+04    0.11871E-03   -0.27028E-04  1155   0.214E-02    0.154E-01
RMM:   4    -0.117686426545E+04   -0.94559E-04   -0.99745E-04  1459   0.329E-02
  13 F= -.11840149E+04 E0= -.11840104E+04  d E =-.145815E-02  mag=    -0.9933
       N       E                     dE             d eps       ncg     rms          rms(c)
DAV:   1    -0.117686501871E+04   -0.84782E-03   -0.15754E-02  1764   0.198E-01    0.466E-02
RMM:   2    -0.117686503105E+04   -0.12344E-04   -0.39517E-04  1167   0.299E-02
  14 F= -.11840157E+04 E0= -.11840113E+04  d E =-.778104E-03  mag=    -0.9936
       N       E                     dE             d eps       ncg     rms          rms(c)
DAV:   1    -0.117686565105E+04   -0.63234E-03   -0.79169E-02  1584   0.442E-01    0.112E-01
RMM:   2    -0.117686575702E+04   -0.10597E-03   -0.20059E-03  1598   0.655E-02    0.990E-02
RMM:   3    -0.117686568188E+04    0.75133E-04   -0.10414E-04  1046   0.137E-02
  15 F= -.11840164E+04 E0= -.11840122E+04  d E =-.145922E-02  mag=    -0.9942
       N       E                     dE             d eps       ncg     rms          rms(c)
DAV:   1    -0.117686631712E+04   -0.56010E-03   -0.26990E-02  1728   0.239E-01    0.668E-02
RMM:   2    -0.117686632881E+04   -0.11692E-04   -0.53306E-04  1188   0.313E-02
  16 F= -.11840170E+04 E0= -.11840129E+04  d E =-.581329E-03  mag=    -0.9943
       N       E                     dE             d eps       ncg     rms          rms(c)
DAV:   1    -0.117686698444E+04   -0.66732E-03   -0.11662E-01  1656   0.495E-01    0.131E-01
RMM:   2    -0.117686707645E+04   -0.92014E-04   -0.24595E-03  1592   0.675E-02    0.117E-01
RMM:   3    -0.117686694018E+04    0.13627E-03   -0.13506E-04  1063   0.154E-02    0.912E-02
RMM:   4    -0.117686688331E+04    0.56872E-04   -0.52029E-04  1429   0.255E-02
  17 F= -.11840174E+04 E0= -.11840135E+04  d E =-.100195E-02  mag=    -0.9946
       N       E                     dE             d eps       ncg     rms          rms(c)
DAV:   1    -0.117686749192E+04   -0.55174E-03   -0.33250E-02  1692   0.241E-01    0.538E-02
RMM:   2    -0.117686752231E+04   -0.30391E-04   -0.61166E-04  1202   0.321E-02
  18 F= -.11840180E+04 E0= -.11840141E+04  d E =-.558756E-03  mag=    -0.9947
       N       E                     dE             d eps       ncg     rms          rms(c)
DAV:   1    -0.117686850014E+04   -0.10082E-02   -0.30103E-01  1584   0.722E-01    0.154E-01
RMM:   2    -0.117686882700E+04   -0.32686E-03   -0.54503E-03  1592   0.917E-02    0.138E-01
RMM:   3    -0.117686868170E+04    0.14529E-03   -0.21958E-04  1133   0.193E-02    0.113E-01
RMM:   4    -0.117686867585E+04    0.58557E-05   -0.10248E-03  1539   0.338E-02    0.364E-02
RMM:   5    -0.117686865903E+04    0.16813E-04   -0.32863E-05  1012   0.823E-03
  19 F= -.11840189E+04 E0= -.11840151E+04  d E =-.145740E-02  mag=    -0.9949
       N       E                     dE             d eps       ncg     rms          rms(c)
DAV:   1    -0.117686945861E+04   -0.78277E-03   -0.59576E-02  1728   0.315E-01    0.734E-02
RMM:   2    -0.117686952022E+04   -0.61612E-04   -0.11006E-03  1430   0.413E-02    0.638E-02
RMM:   3    -0.117686949767E+04    0.22553E-04   -0.48842E-05   988   0.103E-02
  20 F= -.11840197E+04 E0= -.11840158E+04  d E =-.804221E-03  mag=    -0.9947
       N       E                     dE             d eps       ncg     rms          rms(c)
DAV:   1    -0.117686980661E+04   -0.28639E-03   -0.24918E-01  1584   0.643E-01    0.145E-01
RMM:   2    -0.117687009494E+04   -0.28832E-03   -0.42194E-03  1584   0.792E-02    0.129E-01
RMM:   3    -0.117687002511E+04    0.69827E-04   -0.15443E-04  1095   0.166E-02
  21 F= -.11840201E+04 E0= -.11840162E+04  d E =-.126120E-02  mag=    -0.9946
       N       E                     dE             d eps       ncg     rms          rms(c)
DAV:   1    -0.117687039911E+04   -0.30417E-03   -0.18461E-02  1584   0.171E-01    0.546E-02
RMM:   2    -0.117687039465E+04    0.44623E-05   -0.26668E-04  1060   0.211E-02
  22 F= -.11840205E+04 E0= -.11840166E+04  d E =-.356935E-03  mag=    -0.9947
       N       E                     dE             d eps       ncg     rms          rms(c)
DAV:   1    -0.117687087125E+04   -0.47214E-03   -0.78852E-02  1584   0.348E-01    0.116E-01
RMM:   2    -0.117687092647E+04   -0.55221E-04   -0.15135E-03  1479   0.470E-02    0.105E-01
RMM:   3    -0.117687086957E+04    0.56901E-04   -0.90379E-05  1037   0.128E-02
  23 F= -.11840209E+04 E0= -.11840170E+04  d E =-.808475E-03  mag=    -0.9944
