       N       E                     dE             d eps       ncg     rms          rms(c)
DAV:   1     0.468941503907E+04    0.46894E+04   -0.17524E+05  1908   0.908E+02
DAV:   2    -0.105985561512E+03   -0.47954E+04   -0.43757E+04  2520   0.207E+02
DAV:   3    -0.119379487633E+04   -0.10878E+04   -0.10822E+04  2124   0.107E+02
DAV:   4    -0.123698465169E+04   -0.43190E+02   -0.42977E+02  2016   0.280E+01
DAV:   5    -0.123808365497E+04   -0.10990E+01   -0.10964E+01  2268   0.417E+00    0.755E+01
RMM:   6    -0.122774815995E+04    0.10335E+02   -0.69273E+01  1689   0.773E+00    0.650E+01
RMM:   7    -0.121161300768E+04    0.16135E+02   -0.79129E+00  1702   0.305E+00    0.461E+01
RMM:   8    -0.119429359744E+04    0.17319E+02   -0.12905E+01  1593   0.410E+00    0.348E+01
RMM:   9    -0.117170067197E+04    0.22593E+02   -0.41460E+01  1587   0.737E+00    0.208E+01
RMM:  10    -0.117064094611E+04    0.10597E+01   -0.25994E+01  1588   0.568E+00    0.970E+00
RMM:  11    -0.117057430114E+04    0.66645E-01   -0.13238E+00  1678   0.149E+00    0.711E+00
RMM:  12    -0.117010917328E+04    0.46513E+00   -0.12274E+00  1600   0.112E+00    0.379E+00
RMM:  13    -0.116985406556E+04    0.25511E+00   -0.27042E-01  1639   0.600E-01    0.193E+00
RMM:  14    -0.116981159403E+04    0.42472E-01   -0.20648E-01  1603   0.485E-01    0.929E-01
RMM:  15    -0.116981327818E+04   -0.16841E-02   -0.18818E-02  1747   0.174E-01    0.250E-01
RMM:  16    -0.116981299231E+04    0.28587E-03   -0.19425E-03  1724   0.542E-02    0.181E-01
RMM:  17    -0.116981336374E+04   -0.37143E-03   -0.19183E-03  1593   0.509E-02    0.113E-01
RMM:  18    -0.116981340304E+04   -0.39296E-04   -0.34631E-04  1197   0.261E-02
   1 F= -.11768361E+04 E0= -.11768361E+04  d E =-.117684E+04  mag=     2.9937
       N       E                     dE             d eps       ncg     rms          rms(c)
DAV:   1    -0.116981101789E+04    0.23459E-02   -0.50631E-01  1764   0.146E+00    0.286E-01
RMM:   2    -0.116981394866E+04   -0.29308E-02   -0.34868E-02  1751   0.247E-01    0.244E-01
RMM:   3    -0.116981337181E+04    0.57686E-03   -0.25114E-03  1812   0.607E-02    0.215E-01
RMM:   4    -0.116981244986E+04    0.92195E-03   -0.12963E-03  1599   0.406E-02    0.130E-01
RMM:   5    -0.116981209036E+04    0.35950E-03   -0.94546E-04  1589   0.352E-02    0.737E-02
RMM:   6    -0.116981206014E+04    0.30223E-04   -0.34637E-04  1221   0.234E-02
   2 F= -.11768351E+04 E0= -.11768351E+04  d E =0.940304E-03  mag=     3.0000
       N       E                     dE             d eps       ncg     rms          rms(c)
DAV:   1    -0.116981402217E+04   -0.19318E-02   -0.17489E-01  1836   0.853E-01    0.167E-01
RMM:   2    -0.116981481162E+04   -0.78945E-03   -0.10849E-02  1731   0.141E-01    0.144E-01
RMM:   3    -0.116981458544E+04    0.22618E-03   -0.73898E-04  1273   0.333E-02    0.128E-01
RMM:   4    -0.116981420788E+04    0.37756E-03   -0.57077E-04  1528   0.275E-02    0.745E-02
RMM:   5    -0.116981405662E+04    0.15126E-03   -0.37971E-04  1238   0.235E-02    0.396E-02
RMM:   6    -0.116981404463E+04    0.11991E-04   -0.11294E-04  1058   0.149E-02
   3 F= -.11768369E+04 E0= -.11768369E+04  d E =-.808563E-03  mag=     3.0000
