       N       E                     dE             d eps       ncg     rms          rms(c)
DAV:   1     0.479913442988E+04    0.47991E+04   -0.17538E+05  1856   0.942E+02
DAV:   2    -0.505094247420E+02   -0.48496E+04   -0.44136E+04  2432   0.210E+02
DAV:   3    -0.119196454969E+04   -0.11415E+04   -0.11359E+04  2048   0.112E+02
DAV:   4    -0.123914881308E+04   -0.47184E+02   -0.46921E+02  1952   0.297E+01
DAV:   5    -0.124033983345E+04   -0.11910E+01   -0.11882E+01  2272   0.439E+00    0.762E+01
RMM:   6    -0.122572367803E+04    0.14616E+02   -0.88422E+00  1582   0.358E+00    0.581E+01
RMM:   7    -0.119369317321E+04    0.32031E+02   -0.81098E+01  1645   0.103E+01    0.330E+01
RMM:   8    -0.118602604096E+04    0.76671E+01   -0.97357E+00  1579   0.467E+00    0.291E+01
RMM:   9    -0.117938908006E+04    0.66370E+01   -0.38199E+01  1708   0.735E+00    0.231E+01
RMM:  10    -0.117689770685E+04    0.24914E+01   -0.71023E+00  1602   0.381E+00    0.172E+01
RMM:  11    -0.117575171642E+04    0.11460E+01   -0.63546E+00  1669   0.275E+00    0.970E+00
RMM:  12    -0.117549146998E+04    0.26025E+00   -0.76972E-01  1863   0.127E+00    0.637E+00
RMM:  13    -0.117520672229E+04    0.28475E+00   -0.40791E-01  1581   0.785E-01    0.529E+00
RMM:  14    -0.117501595389E+04    0.19077E+00   -0.27727E-01  1541   0.675E-01    0.410E+00
RMM:  15    -0.117489541319E+04    0.12054E+00   -0.21172E-01  1552   0.574E-01    0.315E+00
RMM:  16    -0.117489392938E+04    0.14838E-02   -0.24752E-02  1715   0.235E-01    0.275E+00
RMM:  17    -0.117488164923E+04    0.12280E-01   -0.91068E-03  1583   0.125E-01    0.225E+00
RMM:  18    -0.117487596160E+04    0.56876E-02   -0.59103E-02  1764   0.288E-01    0.160E+00
RMM:  19    -0.117488222881E+04   -0.62672E-02   -0.11487E-02  1604   0.146E-01    0.167E+00
RMM:  20    -0.117487000111E+04    0.12228E-01   -0.32176E-03  1734   0.821E-02    0.106E+00
RMM:  21    -0.117486623232E+04    0.37688E-02   -0.53382E-03  1713   0.784E-02    0.663E-01
RMM:  22    -0.117486564961E+04    0.58272E-03   -0.13459E-03  1714   0.468E-02    0.282E-01
RMM:  23    -0.117486566369E+04   -0.14082E-04   -0.39817E-04  1926   0.265E-02    0.209E-01
RMM:  24    -0.117486574413E+04   -0.80444E-04   -0.16231E-04  1688   0.174E-02    0.232E-01
RMM:  25    -0.117486561980E+04    0.12433E-03   -0.14996E-04  1851   0.147E-02    0.675E-02
RMM:  26    -0.117486561602E+04    0.37824E-05   -0.24930E-05  1638   0.691E-03    0.610E-02
RMM:  27    -0.117486562651E+04   -0.10488E-04   -0.16380E-05  1539   0.542E-03    0.455E-02
RMM:  28    -0.117486562047E+04    0.60345E-05   -0.75766E-06  1494   0.352E-03    0.267E-02
RMM:  29    -0.117486561900E+04    0.14771E-05   -0.31450E-06  1152   0.218E-03    0.207E-02
RMM:  30    -0.117486561966E+04   -0.66622E-06   -0.96470E-07  1029   0.138E-03
   1 F= -.11820043E+04 E0= -.11819902E+04  d E =-.118200E+04  mag=    -0.0005
       N       E                     dE             d eps       ncg     rms          rms(c)
DAV:   1    -0.117485131515E+04    0.14304E-01   -0.38487E+00  1824   0.308E+00    0.881E-01
RMM:   2    -0.117486593571E+04   -0.14621E-01   -0.18607E-01  1750   0.574E-01    0.598E-01
RMM:   3    -0.117486802238E+04   -0.20867E-02   -0.42271E-02  1870   0.242E-01    0.538E-01
RMM:   4    -0.117486694677E+04    0.10756E-02   -0.81390E-03  1774   0.108E-01    0.424E-01
RMM:   5    -0.117486701806E+04   -0.71295E-04   -0.67571E-03  1561   0.984E-02    0.591E-01
RMM:   6    -0.117486660502E+04    0.41304E-03   -0.14656E-03  1902   0.499E-02    0.238E-01
RMM:   7    -0.117486625577E+04    0.34926E-03   -0.26424E-04  1567   0.215E-02    0.126E-01
RMM:   8    -0.117486614861E+04    0.10716E-03   -0.83738E-04  1576   0.301E-02    0.617E-02
RMM:   9    -0.117486611065E+04    0.37963E-04   -0.21303E-04  1694   0.190E-02    0.317E-02
RMM:  10    -0.117486610059E+04    0.10059E-04   -0.73099E-05  1811   0.107E-02    0.199E-02
RMM:  11    -0.117486609475E+04    0.58429E-05   -0.20952E-05  1540   0.595E-03    0.981E-03
RMM:  12    -0.117486609356E+04    0.11883E-05   -0.86161E-06  1538   0.378E-03    0.545E-03
RMM:  13    -0.117486609339E+04    0.17093E-06   -0.30741E-06  1176   0.228E-03
   2 F= -.11820054E+04 E0= -.11819913E+04  d E =-.112230E-02  mag=    -0.0000
       N       E                     dE             d eps       ncg     rms          rms(c)
DAV:   1    -0.117486838552E+04   -0.22920E-02   -0.88888E-01  1760   0.147E+00    0.382E-01
RMM:   2    -0.117487161424E+04   -0.32287E-02   -0.41409E-02  1758   0.277E-01    0.277E-01
RMM:   3    -0.117487221900E+04   -0.60475E-03   -0.91402E-03  1780   0.112E-01    0.260E-01
RMM:   4    -0.117487199399E+04    0.22500E-03   -0.19893E-03  1784   0.528E-02    0.234E-01
RMM:   5    -0.117487235182E+04   -0.35782E-03   -0.30963E-04  2065   0.220E-02    0.496E-01
RMM:   6    -0.117487190791E+04    0.44391E-03   -0.97919E-04  1560   0.366E-02    0.833E-02
RMM:   7    -0.117487185848E+04    0.49431E-04   -0.12439E-04  1629   0.176E-02    0.515E-02
RMM:   8    -0.117487182961E+04    0.28866E-04   -0.14509E-04  1563   0.132E-02    0.289E-02
RMM:   9    -0.117487182115E+04    0.84644E-05   -0.23517E-05  1558   0.696E-03    0.173E-02
RMM:  10    -0.117487181878E+04    0.23664E-05   -0.56820E-05  1591   0.836E-03    0.938E-03
RMM:  11    -0.117487181624E+04    0.25444E-05   -0.56562E-06  1413   0.362E-03    0.613E-03
RMM:  12    -0.117487181566E+04    0.57848E-06   -0.32995E-06  1235   0.216E-03
   3 F= -.11820108E+04 E0= -.11819967E+04  d E =-.651278E-02  mag=    -0.0000
       N       E                     dE             d eps       ncg     rms          rms(c)
DAV:   1    -0.117486745375E+04    0.43625E-02   -0.18750E+00  1792   0.207E+00    0.589E-01
RMM:   2    -0.117487741685E+04   -0.99631E-02   -0.11422E-01  1748   0.408E-01    0.460E-01
RMM:   3    -0.117487930252E+04   -0.18857E-02   -0.24939E-02  1762   0.162E-01    0.412E-01
RMM:   4    -0.117487925448E+04    0.48044E-04   -0.52814E-03  1821   0.772E-02    0.270E-01
RMM:   5    -0.117487945730E+04   -0.20282E-03   -0.16718E-03  1623   0.518E-02    0.190E-01
RMM:   6    -0.117487955476E+04   -0.97455E-04   -0.30241E-04  1986   0.236E-02    0.283E-01
RMM:   7    -0.117487935937E+04    0.19539E-03   -0.86692E-05  1596   0.121E-02    0.736E-02
RMM:   8    -0.117487935714E+04    0.22316E-05   -0.23186E-05  1754   0.642E-03    0.726E-02
RMM:   9    -0.117487934729E+04    0.98482E-05   -0.79775E-06  1357   0.341E-03    0.673E-02
RMM:  10    -0.117487923080E+04    0.11649E-03   -0.57433E-04  2420   0.247E-02    0.345E-02
RMM:  11    -0.117487921610E+04    0.14693E-04   -0.32319E-05  1627   0.710E-03    0.203E-02
RMM:  12    -0.117487921092E+04    0.51858E-05   -0.16621E-05  1543   0.470E-03    0.118E-02
RMM:  13    -0.117487921083E+04    0.92921E-07   -0.63961E-06  1476   0.300E-03
   4 F= -.11820184E+04 E0= -.11820043E+04  d E =-.756553E-02  mag=    -0.0000
       N       E                     dE             d eps       ncg     rms          rms(c)
DAV:   1    -0.117487860178E+04    0.60914E-03   -0.14880E-01  1824   0.584E-01    0.164E-01
RMM:   2    -0.117487938359E+04   -0.78181E-03   -0.89741E-03  1734   0.114E-01    0.132E-01
RMM:   3    -0.117487953715E+04   -0.15356E-03   -0.20112E-03  1767   0.452E-02    0.117E-01
RMM:   4    -0.117487953800E+04   -0.84690E-06   -0.40207E-04  1818   0.216E-02    0.870E-02
RMM:   5    -0.117487964528E+04   -0.10728E-03   -0.58920E-05  1731   0.982E-03    0.232E-01
RMM:   6    -0.117487954699E+04    0.98295E-04   -0.60355E-05  1598   0.102E-02    0.314E-02
RMM:   7    -0.117487954084E+04    0.61464E-05   -0.12463E-05  1596   0.534E-03    0.188E-02
RMM:   8    -0.117487953466E+04    0.61769E-05   -0.19534E-05  1520   0.471E-03    0.115E-02
RMM:   9    -0.117487953323E+04    0.14270E-05   -0.64730E-06  1401   0.312E-03    0.547E-03
RMM:  10    -0.117487953304E+04    0.19965E-06   -0.35024E-06  1210   0.222E-03
   5 F= -.11820188E+04 E0= -.11820047E+04  d E =-.796298E-02  mag=    -0.0000
       N       E                     dE             d eps       ncg     rms          rms(c)
DAV:   1    -0.117487965193E+04   -0.11869E-03   -0.11370E+00  1664   0.170E+00    0.390E-01
RMM:   2    -0.117488423028E+04   -0.45784E-02   -0.56188E-02  1754   0.305E-01    0.298E-01
RMM:   3    -0.117488517364E+04   -0.94335E-03   -0.12782E-02  1752   0.123E-01    0.267E-01
RMM:   4    -0.117488503201E+04    0.14163E-03   -0.22095E-03  1814   0.561E-02    0.190E-01
RMM:   5    -0.117488516237E+04   -0.13036E-03   -0.11657E-03  1610   0.431E-02    0.222E-01
RMM:   6    -0.117488512148E+04    0.40885E-04   -0.24966E-04  1906   0.213E-02    0.144E-01
RMM:   7    -0.117488503410E+04    0.87382E-04   -0.59524E-05  1555   0.966E-03    0.663E-02
RMM:   8    -0.117488502691E+04    0.71918E-05   -0.90313E-05  1593   0.106E-02    0.263E-02
RMM:   9    -0.117488500954E+04    0.17365E-04   -0.64228E-05  1643   0.940E-03    0.117E-02
RMM:  10    -0.117488500877E+04    0.77648E-06   -0.26126E-05  1699   0.619E-03    0.847E-03
RMM:  11    -0.117488500666E+04    0.21062E-05   -0.41525E-06  1329   0.286E-03    0.498E-03
RMM:  12    -0.117488500656E+04    0.98946E-07   -0.47270E-06  1288   0.243E-03
   6 F= -.11820244E+04 E0= -.11820103E+04  d E =-.562598E-02  mag=     0.0000
       N       E                     dE             d eps       ncg     rms          rms(c)
DAV:   1    -0.117488411364E+04    0.89302E-03   -0.42412E-01  1792   0.104E+00    0.236E-01
RMM:   2    -0.117488568615E+04   -0.15725E-02   -0.19669E-02  1750   0.180E-01    0.182E-01
RMM:   3    -0.117488600122E+04   -0.31507E-03   -0.43861E-03  1748   0.742E-02    0.163E-01
RMM:   4    -0.117488595547E+04    0.45742E-04   -0.91197E-04  1781   0.350E-02    0.113E-01
RMM:   5    -0.117488599203E+04   -0.36555E-04   -0.42282E-04  1615   0.260E-02    0.994E-02
RMM:   6    -0.117488600270E+04   -0.10670E-04   -0.83811E-05  1878   0.124E-02    0.110E-01
RMM:   7    -0.117488601899E+04   -0.16295E-04   -0.62480E-05  1655   0.970E-03    0.568E-02
RMM:   8    -0.117488599889E+04    0.20098E-04   -0.13184E-05  1658   0.524E-03    0.397E-02
RMM:   9    -0.117488596021E+04    0.38687E-04   -0.62255E-05  1718   0.802E-03    0.213E-02
RMM:  10    -0.117488595434E+04    0.58679E-05   -0.22246E-05  1655   0.555E-03    0.128E-02
RMM:  11    -0.117488595202E+04    0.23222E-05   -0.85176E-06  1728   0.369E-03    0.670E-03
RMM:  12    -0.117488595178E+04    0.24203E-06   -0.30314E-06  1181   0.228E-03
   7 F= -.11820255E+04 E0= -.11820114E+04  d E =-.670388E-02  mag=    -0.0000
       N       E                     dE             d eps       ncg     rms          rms(c)
DAV:   1    -0.117488824610E+04   -0.22941E-02   -0.10830E+00  1600   0.171E+00    0.342E-01
RMM:   2    -0.117489104226E+04   -0.27962E-02   -0.37453E-02  1786   0.275E-01    0.264E-01
RMM:   3    -0.117489167696E+04   -0.63470E-03   -0.89202E-03  1748   0.114E-01    0.230E-01
RMM:   4    -0.117489155598E+04    0.12098E-03   -0.16088E-03  1876   0.508E-02    0.161E-01
RMM:   5    -0.117489159727E+04   -0.41287E-04   -0.89294E-04  1584   0.378E-02    0.104E-01
RMM:   6    -0.117489164247E+04   -0.45195E-04   -0.16188E-04  1897   0.177E-02    0.159E-01
RMM:   7    -0.117489160932E+04    0.33148E-04   -0.63864E-05  1614   0.107E-02    0.453E-02
RMM:   8    -0.117489160289E+04    0.64272E-05   -0.15777E-05  1770   0.545E-03    0.440E-02
RMM:   9    -0.117489156278E+04    0.40109E-04   -0.48212E-05  1581   0.749E-03    0.281E-02
RMM:  10    -0.117489154923E+04    0.13555E-04   -0.14932E-04  1950   0.125E-02    0.115E-02
RMM:  11    -0.117489154703E+04    0.21964E-05   -0.10038E-05  1496   0.451E-03    0.899E-03
RMM:  12    -0.117489154520E+04    0.18311E-05   -0.10591E-05  1517   0.390E-03    0.345E-03
RMM:  13    -0.117489154500E+04    0.20251E-06   -0.19182E-06  1117   0.185E-03
   8 F= -.11820312E+04 E0= -.11820171E+04  d E =-.576885E-02  mag=    -0.0000
       N       E                     dE             d eps       ncg     rms          rms(c)
DAV:   1    -0.117488626168E+04    0.52835E-02   -0.27398E+00  1600   0.273E+00    0.547E-01
RMM:   2    -0.117489327506E+04   -0.70134E-02   -0.94719E-02  1784   0.439E-01    0.422E-01
RMM:   3    -0.117489487389E+04   -0.15988E-02   -0.22540E-02  1742   0.182E-01    0.367E-01
RMM:   4    -0.117489453618E+04    0.33771E-03   -0.40846E-03  1870   0.812E-02    0.255E-01
RMM:   5    -0.117489458198E+04   -0.45807E-04   -0.22939E-03  1585   0.603E-02    0.115E-01
RMM:   6    -0.117489473240E+04   -0.15041E-03   -0.41078E-04  1897   0.288E-02    0.242E-01
RMM:   7    -0.117489460939E+04    0.12301E-03   -0.11587E-04  1765   0.146E-02    0.702E-02
RMM:   8    -0.117489455076E+04    0.58635E-04   -0.45679E-05  1590   0.880E-03    0.578E-02
RMM:   9    -0.117489448695E+04    0.63809E-04   -0.30513E-04  1770   0.179E-02    0.207E-02
RMM:  10    -0.117489448158E+04    0.53643E-05   -0.34635E-05  1654   0.827E-03    0.137E-02
RMM:  11    -0.117489447833E+04    0.32523E-05   -0.14766E-05  1608   0.493E-03    0.640E-03
RMM:  12    -0.117489447787E+04    0.45956E-06   -0.36082E-06  1258   0.253E-03
   9 F= -.11820346E+04 E0= -.11820205E+04  d E =-.908914E-02  mag=     0.0000
       N       E                     dE             d eps       ncg     rms          rms(c)
DAV:   1    -0.117489545405E+04   -0.97572E-03   -0.10636E+00  1600   0.170E+00    0.303E-01
RMM:   2    -0.117489805199E+04   -0.25979E-02   -0.33886E-02  1790   0.268E-01    0.233E-01
RMM:   3    -0.117489863520E+04   -0.58321E-03   -0.81233E-03  1742   0.112E-01    0.209E-01
RMM:   4    -0.117489854960E+04    0.85595E-04   -0.14436E-03  1898   0.488E-02    0.153E-01
RMM:   5    -0.117489862903E+04   -0.79425E-04   -0.74349E-04  1569   0.351E-02    0.169E-01
RMM:   6    -0.117489858506E+04    0.43967E-04   -0.16276E-04  1876   0.172E-02    0.972E-02
RMM:   7    -0.117489855627E+04    0.28788E-04   -0.35639E-05  1575   0.808E-03    0.438E-02
RMM:   8    -0.117489854821E+04    0.80647E-05   -0.61794E-05  1584   0.879E-03    0.220E-02
RMM:   9    -0.117489853876E+04    0.94503E-05   -0.58764E-05  1578   0.880E-03    0.908E-03
RMM:  10    -0.117489853712E+04    0.16433E-05   -0.55556E-06  1449   0.361E-03    0.644E-03
RMM:  11    -0.117489853639E+04    0.72579E-06   -0.43550E-06  1326   0.239E-03
  10 F= -.11820389E+04 E0= -.11820248E+04  d E =-.433183E-02  mag=     0.0000
       N       E                     dE             d eps       ncg     rms          rms(c)
DAV:   1    -0.117489562356E+04    0.29136E-02   -0.16479E+00  1600   0.212E+00    0.377E-01
RMM:   2    -0.117489964555E+04   -0.40220E-02   -0.52492E-02  1786   0.336E-01    0.289E-01
RMM:   3    -0.117490055086E+04   -0.90531E-03   -0.12588E-02  1741   0.141E-01    0.258E-01
RMM:   4    -0.117490040952E+04    0.14134E-03   -0.22559E-03  1890   0.612E-02    0.186E-01
RMM:   5    -0.117490043807E+04   -0.28548E-04   -0.12736E-03  1564   0.459E-02    0.711E-02
RMM:   6    -0.117490049156E+04   -0.53491E-04   -0.23571E-04  1861   0.219E-02    0.126E-01
RMM:   7    -0.117490046252E+04    0.29038E-04   -0.64231E-05  1867   0.104E-02    0.526E-02
RMM:   8    -0.117490044048E+04    0.22041E-04   -0.12372E-05  1542   0.489E-03    0.467E-02
RMM:   9    -0.117490039743E+04    0.43053E-04   -0.17823E-04  1800   0.138E-02    0.169E-02
RMM:  10    -0.117490039545E+04    0.19798E-05   -0.21038E-05  1685   0.629E-03    0.115E-02
RMM:  11    -0.117490039292E+04    0.25300E-05   -0.65308E-06  1525   0.341E-03    0.627E-03
RMM:  12    -0.117490039266E+04    0.26008E-06   -0.30382E-06  1174   0.216E-03
  11 F= -.11820411E+04 E0= -.11820270E+04  d E =-.659080E-02  mag=     0.0000
       N       E                     dE             d eps       ncg     rms          rms(c)
DAV:   1    -0.117490245521E+04   -0.20623E-02   -0.73487E-01  1600   0.142E+00    0.245E-01
RMM:   2    -0.117490426611E+04   -0.18109E-02   -0.22855E-02  1772   0.224E-01    0.193E-01
RMM:   3    -0.117490461229E+04   -0.34618E-03   -0.53529E-03  1755   0.951E-02    0.174E-01
RMM:   4    -0.117490453393E+04    0.78357E-04   -0.10951E-03  1832   0.427E-02    0.124E-01
RMM:   5    -0.117490456517E+04   -0.31234E-04   -0.56518E-04  1584   0.309E-02    0.104E-01
RMM:   6    -0.117490456536E+04   -0.19487E-06   -0.11663E-04  1950   0.148E-02    0.941E-02
RMM:   7    -0.117490454406E+04    0.21302E-04   -0.13328E-05  1734   0.504E-03    0.813E-02
RMM:   8    -0.117490452252E+04    0.21538E-04   -0.15313E-04  1689   0.129E-02    0.185E-02
RMM:   9    -0.117490452008E+04    0.24432E-05   -0.12402E-05  1524   0.549E-03    0.127E-02
RMM:  10    -0.117490451728E+04    0.27995E-05   -0.11239E-05  1466   0.386E-03    0.706E-03
RMM:  11    -0.117490451663E+04    0.64735E-06   -0.49767E-06  1301   0.268E-03
  12 F= -.11820455E+04 E0= -.11820314E+04  d E =-.438073E-02  mag=    -0.0000
       N       E                     dE             d eps       ncg     rms          rms(c)
DAV:   1    -0.117490293952E+04    0.15778E-02   -0.12111E+00  1600   0.182E+00    0.315E-01
RMM:   2    -0.117490594078E+04   -0.30013E-02   -0.37788E-02  1770   0.287E-01    0.249E-01
RMM:   3    -0.117490649591E+04   -0.55513E-03   -0.87712E-03  1761   0.122E-01    0.222E-01
RMM:   4    -0.117490637348E+04    0.12243E-03   -0.19874E-03  1790   0.560E-02    0.153E-01
RMM:   5    -0.117490641171E+04   -0.38231E-04   -0.91161E-04  1583   0.390E-02    0.967E-02
RMM:   6    -0.117490644995E+04   -0.38232E-04   -0.17247E-04  1987   0.183E-02    0.130E-01
RMM:   7    -0.117490643258E+04    0.17371E-04   -0.74484E-05  1579   0.115E-02    0.499E-02
RMM:   8    -0.117490643486E+04   -0.22827E-05   -0.20611E-05  1909   0.595E-03    0.511E-02
RMM:   9    -0.117490644418E+04   -0.93258E-05   -0.14217E-05  1535   0.429E-03    0.545E-02
RMM:  10    -0.117490649131E+04   -0.47124E-04   -0.36456E-05  1578   0.677E-03    0.666E-02
RMM:  11    -0.117490636433E+04    0.12698E-03   -0.64670E-04  2551   0.260E-02    0.266E-02
RMM:  12    -0.117490636762E+04   -0.32924E-05   -0.46328E-05  1879   0.849E-03    0.240E-02
RMM:  13    -0.117490635664E+04    0.10985E-04   -0.28648E-05  1642   0.624E-03    0.894E-03
RMM:  14    -0.117490635678E+04   -0.14057E-06   -0.12175E-05  1537   0.443E-03    0.361E-03
RMM:  15    -0.117490635656E+04    0.21714E-06   -0.15250E-06  1036   0.195E-03
  13 F= -.11820477E+04 E0= -.11820336E+04  d E =-.658836E-02  mag=    -0.0002
       N       E                     dE             d eps       ncg     rms          rms(c)
DAV:   1    -0.117490765260E+04   -0.12958E-02   -0.95226E-01  1600   0.161E+00    0.254E-01
RMM:   2    -0.117490972073E+04   -0.20681E-02   -0.26393E-02  1760   0.248E-01    0.198E-01
RMM:   3    -0.117491010752E+04   -0.38679E-03   -0.62098E-03  1730   0.106E-01    0.175E-01
RMM:   4    -0.117491000040E+04    0.10712E-03   -0.13518E-03  1795   0.489E-02    0.116E-01
RMM:   5    -0.117491002381E+04   -0.23413E-04   -0.63429E-04  1573   0.332E-02    0.540E-02
RMM:   6    -0.117491005261E+04   -0.28796E-04   -0.12223E-04  1904   0.158E-02    0.876E-02
RMM:   7    -0.117491003571E+04    0.16900E-04   -0.33412E-05  1746   0.776E-03    0.400E-02
RMM:   8    -0.117491001459E+04    0.21122E-04   -0.21488E-05  1550   0.557E-03    0.303E-02
RMM:   9    -0.117491000835E+04    0.62339E-05   -0.47728E-05  1570   0.756E-03    0.127E-02
RMM:  10    -0.117491000623E+04    0.21185E-05   -0.13575E-05  1571   0.473E-03    0.672E-03
RMM:  11    -0.117491000567E+04    0.56947E-06   -0.37143E-06  1234   0.252E-03
  14 F= -.11820517E+04 E0= -.11820376E+04  d E =-.397551E-02  mag=    -0.0000
       N       E                     dE             d eps       ncg     rms          rms(c)
DAV:   1    -0.117490840393E+04    0.16023E-02   -0.11234E+00  1600   0.175E+00    0.273E-01
RMM:   2    -0.117491085508E+04   -0.24512E-02   -0.31089E-02  1764   0.270E-01    0.214E-01
RMM:   3    -0.117491131134E+04   -0.45626E-03   -0.73087E-03  1732   0.115E-01    0.187E-01
RMM:   4    -0.117491119642E+04    0.11493E-03   -0.16255E-03  1796   0.536E-02    0.123E-01
RMM:   5    -0.117491122995E+04   -0.33527E-04   -0.71136E-04  1576   0.355E-02    0.577E-02
RMM:   6    -0.117491126099E+04   -0.31047E-04   -0.14117E-04  1943   0.170E-02    0.887E-02
RMM:   7    -0.117491124397E+04    0.17023E-04   -0.37355E-05  1738   0.815E-03    0.437E-02
RMM:   8    -0.117491122230E+04    0.21667E-04   -0.17962E-05  1545   0.530E-03    0.350E-02
RMM:   9    -0.117491121169E+04    0.10611E-04   -0.70811E-05  1606   0.912E-03    0.136E-02
RMM:  10    -0.117491120971E+04    0.19807E-05   -0.14808E-05  1575   0.513E-03    0.758E-03
RMM:  11    -0.117491120914E+04    0.56607E-06   -0.50107E-06  1441   0.290E-03
  15 F= -.11820533E+04 E0= -.11820392E+04  d E =-.556339E-02  mag=    -0.0000
       N       E                     dE             d eps       ncg     rms          rms(c)
DAV:   1    -0.117491232451E+04   -0.11148E-02   -0.12430E+00  1600   0.183E+00    0.244E-01
RMM:   2    -0.117491443825E+04   -0.21137E-02   -0.26928E-02  1764   0.264E-01    0.200E-01
RMM:   3    -0.117491481334E+04   -0.37509E-03   -0.63698E-03  1698   0.115E-01    0.175E-01
RMM:   4    -0.117491471611E+04    0.97222E-04   -0.15241E-03  1834   0.542E-02    0.116E-01
RMM:   5    -0.117491475484E+04   -0.38724E-04   -0.67776E-04  1565   0.350E-02    0.474E-02
RMM:   6    -0.117491477517E+04   -0.20327E-04   -0.14091E-04  1938   0.171E-02    0.514E-02
RMM:   7    -0.117491477524E+04   -0.76885E-07   -0.30838E-05  1940   0.714E-03    0.411E-02
RMM:   8    -0.117491476830E+04    0.69445E-05   -0.37382E-06  1245   0.266E-03    0.384E-02
RMM:   9    -0.117491475082E+04    0.17477E-04   -0.71096E-05  1673   0.907E-03    0.125E-02
RMM:  10    -0.117491474994E+04    0.88422E-06   -0.17199E-05  1608   0.523E-03    0.801E-03
RMM:  11    -0.117491474885E+04    0.10891E-05   -0.33016E-06  1225   0.243E-03    0.465E-03
RMM:  12    -0.117491474872E+04    0.12814E-06   -0.16436E-06  1053   0.165E-03
  16 F= -.11820572E+04 E0= -.11820431E+04  d E =-.387792E-02  mag=    -0.0000
       N       E                     dE             d eps       ncg     rms          rms(c)
DAV:   1    -0.117491392901E+04    0.81984E-03   -0.81594E-01  1600   0.149E+00    0.197E-01
RMM:   2    -0.117491533333E+04   -0.14043E-02   -0.17873E-02  1762   0.215E-01    0.162E-01
RMM:   3    -0.117491558025E+04   -0.24691E-03   -0.42304E-03  1699   0.938E-02    0.142E-01
RMM:   4    -0.117491552240E+04    0.57845E-04   -0.10141E-03  1826   0.442E-02    0.936E-02
RMM:   5    -0.117491555093E+04   -0.28526E-04   -0.44617E-04  1564   0.284E-02    0.373E-02
RMM:   6    -0.117491556053E+04   -0.96037E-05   -0.94649E-05  1899   0.140E-02    0.267E-02
RMM:   7    -0.117491555250E+04    0.80329E-05   -0.19196E-05  1560   0.611E-03    0.288E-02
RMM:   8    -0.117491555382E+04   -0.13201E-05   -0.46061E-06  1292   0.285E-03    0.313E-02
RMM:   9    -0.117491555162E+04    0.21952E-05   -0.38345E-05  1641   0.669E-03    0.117E-02
RMM:  10    -0.117491555024E+04    0.13819E-05   -0.35939E-06  1361   0.294E-03    0.933E-03
RMM:  11    -0.117491554835E+04    0.18872E-05   -0.35115E-06  1270   0.220E-03    0.599E-03
RMM:  12    -0.117491554778E+04    0.57768E-06   -0.17523E-06  1051   0.152E-03
  17 F= -.11820583E+04 E0= -.11820442E+04  d E =-.497175E-02  mag=    -0.0000
       N       E                     dE             d eps       ncg     rms          rms(c)
DAV:   1    -0.117491665613E+04   -0.11078E-02   -0.13569E+00  1600   0.191E+00    0.233E-01
RMM:   2    -0.117491877837E+04   -0.21222E-02   -0.26647E-02  1764   0.268E-01    0.200E-01
RMM:   3    -0.117491911390E+04   -0.33553E-03   -0.63702E-03  1692   0.118E-01    0.172E-01
RMM:   4    -0.117491899540E+04    0.11850E-03   -0.16132E-03  1734   0.576E-02    0.103E-01
RMM:   5    -0.117491906527E+04   -0.69869E-04   -0.69123E-04  1560   0.360E-02    0.428E-02
RMM:   6    -0.117491907407E+04   -0.88025E-05   -0.13715E-04  1992   0.169E-02    0.384E-02
RMM:   7    -0.117491907440E+04   -0.32983E-06   -0.22857E-05  1855   0.624E-03    0.420E-02
RMM:   8    -0.117491906393E+04    0.10474E-04   -0.21524E-05  1561   0.537E-03    0.214E-02
RMM:   9    -0.117491905944E+04    0.44840E-05   -0.23031E-05  1528   0.541E-03    0.159E-02
RMM:  10    -0.117491905766E+04    0.17849E-05   -0.69950E-06  1440   0.330E-03    0.890E-03
RMM:  11    -0.117491905740E+04    0.26173E-06   -0.11232E-05  1521   0.389E-03    0.413E-03
RMM:  12    -0.117491905725E+04    0.15264E-06   -0.28027E-06  1186   0.217E-03
  18 F= -.11820621E+04 E0= -.11820480E+04  d E =-.379999E-02  mag=    -0.0000
       N       E                     dE             d eps       ncg     rms          rms(c)
DAV:   1    -0.117491812203E+04    0.93537E-03   -0.10296E+00  1600   0.166E+00    0.202E-01
RMM:   2    -0.117491973659E+04   -0.16146E-02   -0.20276E-02  1766   0.233E-01    0.174E-01
RMM:   3    -0.117491999189E+04   -0.25530E-03   -0.48323E-03  1690   0.103E-01    0.150E-01
RMM:   4    -0.117491990222E+04    0.89669E-04   -0.12275E-03  1728   0.503E-02    0.889E-02
RMM:   5    -0.117491995924E+04   -0.57021E-04   -0.53033E-04  1558   0.316E-02    0.362E-02
RMM:   6    -0.117491996368E+04   -0.44405E-05   -0.10784E-04  1967   0.150E-02    0.263E-02
RMM:   7    -0.117491995267E+04    0.11013E-04   -0.37313E-05  1562   0.780E-03    0.148E-02
RMM:   8    -0.117491995535E+04   -0.26749E-05   -0.12163E-05  1637   0.448E-03    0.160E-02
RMM:   9    -0.117491995483E+04    0.51394E-06   -0.30957E-06  1175   0.232E-03
  19 F= -.11820632E+04 E0= -.11820491E+04  d E =-.496816E-02  mag=    -0.0002
       N       E                     dE             d eps       ncg     rms          rms(c)
DAV:   1    -0.117492055019E+04   -0.59485E-03   -0.12761E+00  1536   0.185E+00    0.229E-01
RMM:   2    -0.117492262714E+04   -0.20769E-02   -0.25845E-02  1756   0.264E-01    0.189E-01
RMM:   3    -0.117492294511E+04   -0.31797E-03   -0.59915E-03  1678   0.116E-01    0.158E-01
RMM:   4    -0.117492286191E+04    0.83198E-04   -0.16309E-03  1738   0.575E-02    0.104E-01
RMM:   5    -0.117492302201E+04   -0.16010E-03   -0.40085E-04  1681   0.285E-02    0.162E-01
RMM:   6    -0.117492290868E+04    0.11334E-03   -0.21396E-04  1696   0.198E-02    0.524E-02
RMM:   7    -0.117492291960E+04   -0.10928E-04   -0.44228E-05  1824   0.983E-03    0.380E-02
RMM:   8    -0.117492291493E+04    0.46740E-05   -0.86982E-05  1557   0.105E-02    0.172E-02
RMM:   9    -0.117492291460E+04    0.33318E-06   -0.20484E-05  1571   0.584E-03    0.972E-03
RMM:  10    -0.117492291382E+04    0.77322E-06   -0.86857E-06  1550   0.372E-03
  20 F= -.11820664E+04 E0= -.11820523E+04  d E =-.316736E-02  mag=    -0.0000
       N       E                     dE             d eps       ncg     rms          rms(c)
DAV:   1    -0.117492265771E+04    0.25688E-03   -0.40971E-01  1536   0.105E+00    0.130E-01
RMM:   2    -0.117492330530E+04   -0.64759E-03   -0.82667E-03  1756   0.149E-01    0.107E-01
RMM:   3    -0.117492339949E+04   -0.94186E-04   -0.19172E-03  1674   0.653E-02    0.888E-02
RMM:   4    -0.117492337078E+04    0.28706E-04   -0.54609E-04  1717   0.332E-02    0.501E-02
RMM:   5    -0.117492340025E+04   -0.29474E-04   -0.19522E-04  1579   0.192E-02    0.308E-02
RMM:   6    -0.117492340658E+04   -0.63221E-05   -0.45430E-05  2082   0.910E-03    0.397E-02
RMM:   7    -0.117492340681E+04   -0.23071E-06   -0.10019E-05  1490   0.441E-03    0.215E-02
RMM:   8    -0.117492340737E+04   -0.56584E-06   -0.25005E-06  1114   0.223E-03
  21 F= -.11820670E+04 E0= -.11820529E+04  d E =-.378693E-02  mag=    -0.0006
       N       E                     dE             d eps       ncg     rms          rms(c)
DAV:   1    -0.117492316773E+04    0.23908E-03   -0.15184E+00  1536   0.200E+00    0.253E-01
RMM:   2    -0.117492561473E+04   -0.24470E-02   -0.30294E-02  1752   0.284E-01    0.213E-01
RMM:   3    -0.117492601921E+04   -0.40448E-03   -0.70281E-03  1684   0.125E-01    0.183E-01
RMM:   4    -0.117492593820E+04    0.81014E-04   -0.17643E-03  1708   0.609E-02    0.126E-01
RMM:   5    -0.117492617637E+04   -0.23817E-03   -0.39508E-04  1758   0.284E-02    0.200E-01
RMM:   6    -0.117492597429E+04    0.20209E-03   -0.32403E-04  1574   0.240E-02    0.543E-02
RMM:   7    -0.117492599663E+04   -0.22346E-04   -0.51586E-05  1790   0.112E-02    0.434E-02
RMM:   8    -0.117492598432E+04    0.12312E-04   -0.96126E-05  1564   0.110E-02    0.208E-02
RMM:   9    -0.117492598771E+04   -0.33950E-05   -0.26534E-05  1616   0.651E-03    0.124E-02
RMM:  10    -0.117492598667E+04    0.10455E-05   -0.93036E-06  1568   0.396E-03    0.709E-03
RMM:  11    -0.117492598667E+04   -0.44747E-08   -0.46410E-06  1355   0.265E-03
  22 F= -.11820699E+04 E0= -.11820558E+04  d E =-.289026E-02  mag=    -0.0000
       N       E                     dE             d eps       ncg     rms          rms(c)
DAV:   1    -0.117492580601E+04    0.18066E-03   -0.17261E-01  1536   0.672E-01    0.841E-02
RMM:   2    -0.117492606835E+04   -0.26234E-03   -0.33995E-03  1748   0.955E-02    0.710E-02
RMM:   3    -0.117492610717E+04   -0.38820E-04   -0.78128E-04  1682   0.419E-02    0.605E-02
RMM:   4    -0.117492609562E+04    0.11550E-04   -0.22971E-04  1666   0.218E-02    0.314E-02
RMM:   5    -0.117492610835E+04   -0.12730E-04   -0.78975E-05  1567   0.123E-02    0.153E-02
RMM:   6    -0.117492610876E+04   -0.41108E-06   -0.14932E-05  1797   0.551E-03    0.182E-02
RMM:   7    -0.117492610783E+04    0.93325E-06   -0.31777E-06  1217   0.247E-03
  23 F= -.11820701E+04 E0= -.11820560E+04  d E =-.312152E-02  mag=     0.0005
       N       E                     dE             d eps       ncg     rms          rms(c)
DAV:   1    -0.117492498689E+04    0.11219E-02   -0.14051E+00  1600   0.191E+00    0.246E-01
RMM:   2    -0.117492745117E+04   -0.24643E-02   -0.30099E-02  1766   0.278E-01    0.199E-01
RMM:   3    -0.117492783424E+04   -0.38307E-03   -0.67240E-03  1686   0.121E-01    0.163E-01
RMM:   4    -0.117492782660E+04    0.76403E-05   -0.20266E-03  1674   0.628E-02    0.109E-01
RMM:   5    -0.117492798611E+04   -0.15951E-03   -0.32859E-04  1917   0.254E-02    0.165E-01
RMM:   6    -0.117492785915E+04    0.12696E-03   -0.23373E-04  1565   0.203E-02    0.522E-02
RMM:   7    -0.117492787906E+04   -0.19911E-04   -0.43023E-05  1872   0.964E-03    0.461E-02
RMM:   8    -0.117492785512E+04    0.23935E-04   -0.11889E-04  1558   0.118E-02    0.226E-02
RMM:   9    -0.117492786087E+04   -0.57447E-05   -0.21123E-05  1608   0.607E-03    0.132E-02
RMM:  10    -0.117492785962E+04    0.12513E-05   -0.19752E-05  1537   0.527E-03    0.690E-03
RMM:  11    -0.117492785928E+04    0.33383E-06   -0.42053E-06  1290   0.264E-03
  24 F= -.11820722E+04 E0= -.11820581E+04  d E =-.210154E-02  mag=    -0.0000
       N       E                     dE             d eps       ncg     rms          rms(c)
DAV:   1    -0.117492774965E+04    0.10997E-03   -0.55630E-02  1728   0.379E-01    0.480E-02
RMM:   2    -0.117492784254E+04   -0.92894E-04   -0.11761E-03  1766   0.550E-02    0.390E-02
RMM:   3    -0.117492785589E+04   -0.13352E-04   -0.25994E-04  1676   0.239E-02    0.316E-02
RMM:   4    -0.117492785578E+04    0.10816E-06   -0.89683E-05  1658   0.131E-02    0.145E-02
RMM:   5    -0.117492786019E+04   -0.44048E-05   -0.20635E-05  1611   0.628E-03    0.123E-02
RMM:   6    -0.117492786032E+04   -0.13596E-06   -0.47272E-06  1297   0.283E-03
  25 F= -.11820723E+04 E0= -.11820582E+04  d E =-.217454E-02  mag=     0.0014
       N       E                     dE             d eps       ncg     rms          rms(c)
DAV:   1    -0.117492769394E+04    0.16624E-03   -0.84398E-01  1536   0.146E+00    0.181E-01
RMM:   2    -0.117492908487E+04   -0.13909E-02   -0.17044E-02  1754   0.211E-01    0.152E-01
RMM:   3    -0.117492929312E+04   -0.20825E-03   -0.37465E-03  1671   0.917E-02    0.132E-01
RMM:   4    -0.117492939226E+04   -0.99137E-04   -0.90192E-04  1771   0.431E-02    0.163E-01
RMM:   5    -0.117492925484E+04    0.13742E-03   -0.18800E-04  1749   0.194E-02    0.994E-02
RMM:   6    -0.117492926787E+04   -0.13033E-04   -0.21393E-04  1543   0.189E-02    0.390E-02
RMM:   7    -0.117492928108E+04   -0.13204E-04   -0.39831E-05  1640   0.982E-03    0.220E-02
RMM:   8    -0.117492927797E+04    0.31110E-05   -0.44362E-05  1554   0.764E-03    0.118E-02
RMM:   9    -0.117492927747E+04    0.49392E-06   -0.98919E-06  1611   0.414E-03
  26 F= -.11820741E+04 E0= -.11820600E+04  d E =-.173818E-02  mag=     0.0001
       N       E                     dE             d eps       ncg     rms          rms(c)
DAV:   1    -0.117492919196E+04    0.86009E-04   -0.52922E-02  1536   0.366E-01    0.450E-02
RMM:   2    -0.117492927453E+04   -0.82573E-04   -0.10483E-03  1760   0.526E-02    0.379E-02
RMM:   3    -0.117492928647E+04   -0.11939E-04   -0.23165E-04  1666   0.229E-02    0.315E-02
RMM:   4    -0.117492928890E+04   -0.24303E-05   -0.83492E-05  1649   0.128E-02    0.224E-02
RMM:   5    -0.117492929371E+04   -0.48067E-05   -0.14339E-05  1788   0.521E-03    0.309E-02
RMM:   6    -0.117492929091E+04    0.27946E-05   -0.12286E-05  1522   0.457E-03    0.108E-02
RMM:   7    -0.117492929204E+04   -0.11226E-05   -0.26399E-06  1103   0.233E-03    0.112E-02
RMM:   8    -0.117492929301E+04   -0.97573E-06   -0.10905E-06  1017   0.148E-03
  27 F= -.11820742E+04 E0= -.11820601E+04  d E =-.183570E-02  mag=    -0.0011
       N       E                     dE             d eps       ncg     rms          rms(c)
DAV:   1    -0.117492919602E+04    0.96012E-04   -0.87375E-01  1536   0.146E+00    0.182E-01
RMM:   2    -0.117493040871E+04   -0.12127E-02   -0.15252E-02  1730   0.201E-01    0.155E-01
RMM:   3    -0.117493054355E+04   -0.13484E-03   -0.32553E-03  1652   0.876E-02    0.127E-01
RMM:   4    -0.117493054097E+04    0.25733E-05   -0.13589E-03  1603   0.526E-02    0.724E-02
RMM:   5    -0.117493061945E+04   -0.78477E-04   -0.24603E-04  1988   0.222E-02    0.111E-01
RMM:   6    -0.117493056414E+04    0.55306E-04   -0.11741E-04  1626   0.145E-02    0.395E-02
RMM:   7    -0.117493057767E+04   -0.13524E-04   -0.28057E-05  1907   0.698E-03    0.404E-02
RMM:   8    -0.117493059352E+04   -0.15849E-04   -0.12059E-05  1643   0.415E-03    0.442E-02
RMM:   9    -0.117493058171E+04    0.11803E-04   -0.86404E-04  2492   0.298E-02    0.452E-02
RMM:  10    -0.117493057449E+04    0.72209E-05   -0.23117E-05  1585   0.736E-03    0.376E-02
RMM:  11    -0.117493054176E+04    0.32729E-04   -0.10536E-04  2033   0.109E-02    0.121E-02
RMM:  12    -0.117493054038E+04    0.13856E-05   -0.21472E-05  1563   0.562E-03    0.478E-03
RMM:  13    -0.117493054114E+04   -0.75686E-06   -0.61962E-06  1534   0.326E-03
  28 F= -.11820757E+04 E0= -.11820616E+04  d E =-.158825E-02  mag=    -0.0002
       N       E                     dE             d eps       ncg     rms          rms(c)
DAV:   1    -0.117493041693E+04    0.12345E-03   -0.10377E-01  1536   0.503E-01    0.620E-02
RMM:   2    -0.117493055703E+04   -0.14009E-03   -0.17946E-03  1733   0.691E-02    0.530E-02
RMM:   3    -0.117493057095E+04   -0.13926E-04   -0.38397E-04  1647   0.302E-02    0.436E-02
RMM:   4    -0.117493056797E+04    0.29783E-05   -0.17134E-04  1597   0.186E-02    0.165E-02
RMM:   5    -0.117493057463E+04   -0.66591E-05   -0.32200E-05  1848   0.806E-03    0.238E-02
RMM:   6    -0.117493057309E+04    0.15461E-05   -0.87995E-06  1651   0.385E-03    0.131E-02
RMM:   7    -0.117493057254E+04    0.54763E-06   -0.12416E-06  1034   0.176E-03
  29 F= -.11820759E+04 E0= -.11820618E+04  d E =-.173876E-02  mag=    -0.0005
       N       E                     dE             d eps       ncg     rms          rms(c)
DAV:   1    -0.117493042133E+04    0.15175E-03   -0.10149E+00  1536   0.156E+00    0.205E-01
RMM:   2    -0.117493188476E+04   -0.14634E-02   -0.18179E-02  1744   0.219E-01    0.171E-01
RMM:   3    -0.117493203105E+04   -0.14629E-03   -0.37837E-03  1646   0.946E-02    0.136E-01
RMM:   4    -0.117493206775E+04   -0.36701E-04   -0.15854E-03  1598   0.568E-02    0.843E-02
RMM:   5    -0.117493213213E+04   -0.64384E-04   -0.28390E-04  1893   0.238E-02    0.114E-01
RMM:   6    -0.117493207843E+04    0.53702E-04   -0.13567E-04  1613   0.153E-02    0.424E-02
RMM:   7    -0.117493209605E+04   -0.17613E-04   -0.29794E-05  1929   0.739E-03    0.430E-02
RMM:   8    -0.117493209814E+04   -0.20957E-05   -0.49920E-06  1337   0.279E-03    0.437E-02
RMM:   9    -0.117493204626E+04    0.51878E-04   -0.19805E-04  2206   0.142E-02    0.252E-02
RMM:  10    -0.117493206132E+04   -0.15057E-04   -0.10407E-04  1952   0.108E-02    0.276E-02
RMM:  11    -0.117493205535E+04    0.59743E-05   -0.83896E-06  1502   0.434E-03    0.214E-02
RMM:  12    -0.117493204983E+04    0.55154E-05   -0.13296E-05  1513   0.424E-03    0.141E-02
RMM:  13    -0.117493204650E+04    0.33303E-05   -0.11483E-05  1518   0.397E-03    0.653E-03
RMM:  14    -0.117493204652E+04   -0.23101E-07   -0.53240E-06  1444   0.278E-03
  30 F= -.11820776E+04 E0= -.11820635E+04  d E =-.166987E-02  mag=    -0.0000
       N       E                     dE             d eps       ncg     rms          rms(c)
DAV:   1    -0.117493171315E+04    0.33336E-03   -0.28923E-01  1536   0.831E-01    0.110E-01
RMM:   2    -0.117493212150E+04   -0.40835E-03   -0.51757E-03  1744   0.117E-01    0.917E-02
RMM:   3    -0.117493215869E+04   -0.37189E-04   -0.10815E-03  1644   0.505E-02    0.723E-02
RMM:   4    -0.117493216183E+04   -0.31380E-05   -0.50372E-04  1593   0.315E-02    0.233E-02
RMM:   5    -0.117493217184E+04   -0.10018E-04   -0.86145E-05  1866   0.133E-02    0.270E-02
RMM:   6    -0.117493217275E+04   -0.91152E-06   -0.20752E-05  1831   0.552E-03    0.234E-02
RMM:   7    -0.117493217396E+04   -0.12004E-05   -0.23304E-06  1106   0.212E-03    0.241E-02
RMM:   8    -0.117493216271E+04    0.11246E-04   -0.27440E-05  1548   0.555E-03    0.962E-03
RMM:   9    -0.117493216356E+04   -0.85394E-06   -0.77648E-06  1426   0.327E-03
  31 F= -.11820778E+04 E0= -.11820637E+04  d E =-.189400E-02  mag=    -0.0000
       N       E                     dE             d eps       ncg     rms          rms(c)
DAV:   1    -0.117493248567E+04   -0.32296E-03   -0.51076E-01  1536   0.109E+00    0.142E-01
RMM:   2    -0.117493314345E+04   -0.65778E-03   -0.84113E-03  1724   0.148E-01    0.122E-01
RMM:   3    -0.117493320866E+04   -0.65206E-04   -0.17239E-03  1636   0.641E-02    0.994E-02
RMM:   4    -0.117493321736E+04   -0.86995E-05   -0.84474E-04  1583   0.409E-02    0.264E-02
RMM:   5    -0.117493323186E+04   -0.14507E-04   -0.13729E-04  1826   0.171E-02    0.262E-02
RMM:   6    -0.117493323252E+04   -0.65471E-06   -0.26973E-05  1956   0.652E-03    0.279E-02
RMM:   7    -0.117493323440E+04   -0.18838E-05   -0.32980E-06  1214   0.252E-03    0.231E-02
RMM:   8    -0.117493322410E+04    0.10306E-04   -0.17984E-05  1453   0.457E-03    0.149E-02
RMM:   9    -0.117493322091E+04    0.31901E-05   -0.11544E-05  1451   0.381E-03    0.895E-03
RMM:  10    -0.117493322085E+04    0.50619E-07   -0.23428E-06  1100   0.198E-03
  32 F= -.11820790E+04 E0= -.11820649E+04  d E =-.119007E-02  mag=     0.0001
       N       E                     dE             d eps       ncg     rms          rms(c)
DAV:   1    -0.117493292255E+04    0.29835E-03   -0.65837E-01  1536   0.123E+00    0.162E-01
RMM:   2    -0.117493377370E+04   -0.85114E-03   -0.10824E-02  1724   0.168E-01    0.139E-01
RMM:   3    -0.117493385737E+04   -0.83673E-04   -0.22070E-03  1630   0.727E-02    0.113E-01
RMM:   4    -0.117493386895E+04   -0.11578E-04   -0.10833E-03  1587   0.465E-02    0.322E-02
RMM:   5    -0.117493389093E+04   -0.21980E-04   -0.17428E-04  1820   0.193E-02    0.397E-02
RMM:   6    -0.117493389184E+04   -0.90848E-06   -0.41866E-05  1894   0.823E-03    0.308E-02
RMM:   7    -0.117493389152E+04    0.31665E-06   -0.56094E-06  1401   0.321E-03
  33 F= -.11820798E+04 E0= -.11820657E+04  d E =-.201384E-02  mag=     0.0025
       N       E                     dE             d eps       ncg     rms          rms(c)
DAV:   1    -0.117492934500E+04    0.45468E-02   -0.26310E+00  1536   0.247E+00    0.330E-01
RMM:   2    -0.117493289469E+04   -0.35497E-02   -0.43425E-02  1728   0.336E-01    0.284E-01
RMM:   3    -0.117493339695E+04   -0.50226E-03   -0.88363E-03  1634   0.145E-01    0.243E-01
RMM:   4    -0.117493391198E+04   -0.51503E-03   -0.24012E-03  1687   0.729E-02    0.299E-01
RMM:   5    -0.117493340827E+04    0.50370E-03   -0.65961E-04  1626   0.367E-02    0.147E-01
RMM:   6    -0.117493348865E+04   -0.80383E-04   -0.36911E-04  1575   0.262E-02    0.537E-02
RMM:   7    -0.117493348812E+04    0.53979E-06   -0.17577E-04  1563   0.171E-02    0.294E-02
RMM:   8    -0.117493348606E+04    0.20536E-05   -0.70009E-05  1572   0.101E-02    0.140E-02
RMM:   9    -0.117493349008E+04   -0.40207E-05   -0.19735E-05  1877   0.521E-03    0.102E-02
RMM:  10    -0.117493348774E+04    0.23385E-05   -0.72022E-06  1423   0.313E-03    0.644E-03
RMM:  11    -0.117493348838E+04   -0.63649E-06   -0.34249E-06  1278   0.230E-03
  34 F= -.11820797E+04 E0= -.11820656E+04  d E =-.192445E-02  mag=     0.0001
       N       E                     dE             d eps       ncg     rms          rms(c)
DAV:   1    -0.117493256909E+04    0.91865E-03   -0.99960E-01  1536   0.152E+00    0.199E-01
RMM:   2    -0.117493386267E+04   -0.12936E-02   -0.16471E-02  1724   0.208E-01    0.171E-01
RMM:   3    -0.117493397836E+04   -0.11569E-03   -0.33833E-03  1630   0.898E-02    0.138E-01
RMM:   4    -0.117493397731E+04    0.10551E-05   -0.16473E-03  1584   0.571E-02    0.392E-02
RMM:   5    -0.117493401325E+04   -0.35945E-04   -0.27376E-04  1842   0.241E-02    0.436E-02
RMM:   6    -0.117493401652E+04   -0.32699E-05   -0.59723E-05  2048   0.970E-03    0.395E-02
RMM:   7    -0.117493402264E+04   -0.61211E-05   -0.73871E-06  1477   0.348E-03    0.413E-02
RMM:   8    -0.117493398251E+04    0.40132E-04   -0.13011E-04  1696   0.118E-02    0.131E-02
RMM:   9    -0.117493398665E+04   -0.41345E-05   -0.20975E-05  1623   0.567E-03    0.772E-03
RMM:  10    -0.117493398634E+04    0.30881E-06   -0.49276E-06  1438   0.298E-03
  35 F= -.11820800E+04 E0= -.11820659E+04  d E =-.222787E-02  mag=    -0.0001
       N       E                     dE             d eps       ncg     rms          rms(c)
DAV:   1    -0.117493448480E+04   -0.49815E-03   -0.72777E-01  1536   0.130E+00    0.175E-01
RMM:   2    -0.117493536100E+04   -0.87620E-03   -0.11249E-02  1708   0.172E-01    0.154E-01
RMM:   3    -0.117493543363E+04   -0.72631E-04   -0.22691E-03  1615   0.752E-02    0.129E-01
RMM:   4    -0.117493542696E+04    0.66732E-05   -0.13355E-03  1565   0.506E-02    0.320E-02
RMM:   5    -0.117493543756E+04   -0.10608E-04   -0.19566E-04  1854   0.210E-02    0.338E-02
RMM:   6    -0.117493543893E+04   -0.13625E-05   -0.37785E-05  2020   0.801E-03    0.353E-02
RMM:   7    -0.117493545640E+04   -0.17471E-04   -0.10213E-05  1506   0.397E-03    0.377E-02
RMM:   8    -0.117493544046E+04    0.15936E-04   -0.67802E-06  1465   0.313E-03    0.333E-02
RMM:   9    -0.117493542798E+04    0.12482E-04   -0.15164E-04  2270   0.126E-02    0.321E-02
RMM:  10    -0.117493543047E+04   -0.24954E-05   -0.67985E-06  1395   0.362E-03    0.288E-02
RMM:  11    -0.117493585876E+04   -0.42829E-03   -0.21498E-03  2584   0.484E-02    0.129E-01
RMM:  12    -0.117493560374E+04    0.25503E-03   -0.21402E-04  2477   0.172E-02    0.873E-02
RMM:  13    -0.117493546890E+04    0.13484E-03   -0.19784E-04  2454   0.149E-02    0.507E-02
RMM:  14    -0.117493542847E+04    0.40430E-04   -0.75389E-05  2276   0.931E-03    0.274E-02
RMM:  15    -0.117493541877E+04    0.96927E-05   -0.20058E-05  1805   0.502E-03    0.151E-02
RMM:  16    -0.117493541549E+04    0.32811E-05   -0.14508E-05  1606   0.444E-03    0.602E-03
RMM:  17    -0.117493541563E+04   -0.13373E-06   -0.52459E-06  1399   0.285E-03
  36 F= -.11820817E+04 E0= -.11820675E+04  d E =-.163399E-02  mag=     0.0000
