       N       E                     dE             d eps       ncg     rms          rms(c)
DAV:   1     0.482295002459E+04    0.48230E+04   -0.17239E+05  1872   0.905E+02
DAV:   2    -0.779369020374E+02   -0.49009E+04   -0.44596E+04  2520   0.207E+02
DAV:   3    -0.119043310716E+04   -0.11125E+04   -0.11067E+04  2052   0.108E+02
DAV:   4    -0.123608513557E+04   -0.45652E+02   -0.45440E+02  2052   0.289E+01
DAV:   5    -0.123726338178E+04   -0.11782E+01   -0.11755E+01  2304   0.430E+00    0.752E+01
RMM:   6    -0.122472009332E+04    0.12543E+02   -0.60654E+01  1672   0.713E+00    0.564E+01
RMM:   7    -0.121040124161E+04    0.14319E+02   -0.93847E+00  1684   0.338E+00    0.467E+01
RMM:   8    -0.118604386013E+04    0.24357E+02   -0.24583E+01  1597   0.561E+00    0.312E+01
RMM:   9    -0.117210067143E+04    0.13943E+02   -0.23918E+01  1591   0.547E+00    0.199E+01
RMM:  10    -0.116892909102E+04    0.31716E+01   -0.23058E+01  1585   0.536E+00    0.111E+01
RMM:  11    -0.116952455245E+04   -0.59546E+00   -0.18240E+00  1701   0.164E+00    0.637E+00
RMM:  12    -0.116925491988E+04    0.26963E+00   -0.12617E-01  1668   0.487E-01    0.418E+00
RMM:  13    -0.116901326605E+04    0.24165E+00   -0.82782E-01  1591   0.948E-01    0.145E+00
RMM:  14    -0.116894855018E+04    0.64716E-01   -0.25614E-01  1601   0.543E-01    0.551E-01
RMM:  15    -0.116894813270E+04    0.41748E-03   -0.82426E-03  1745   0.130E-01    0.237E-01
RMM:  16    -0.116894740770E+04    0.72501E-03   -0.23752E-03  1680   0.540E-02    0.174E-01
RMM:  17    -0.116894791919E+04   -0.51150E-03   -0.14544E-03  1601   0.459E-02    0.169E-01
RMM:  18    -0.116894776532E+04    0.15387E-03   -0.33788E-04  1212   0.227E-02    0.101E-01
RMM:  19    -0.116894791882E+04   -0.15350E-03   -0.10207E-04  1085   0.148E-02    0.756E-02
RMM:  20    -0.116894786756E+04    0.51260E-04   -0.16076E-04  1084   0.154E-02
   1 F= -.11759799E+04 E0= -.11759799E+04  d E =-.117598E+04  mag=     2.9960
       N       E                     dE             d eps       ncg     rms          rms(c)
DAV:   1    -0.116894601834E+04    0.19005E-02   -0.28031E-01  1908   0.120E+00    0.243E-01
RMM:   2    -0.116894873103E+04   -0.27127E-02   -0.29371E-02  1730   0.187E-01    0.182E-01
RMM:   3    -0.116894818351E+04    0.54752E-03   -0.18187E-03  1544   0.470E-02    0.146E-01
RMM:   4    -0.116894781393E+04    0.36958E-03   -0.72128E-04  1565   0.307E-02    0.831E-02
RMM:   5    -0.116894770844E+04    0.10550E-03   -0.19098E-04  1079   0.178E-02    0.547E-02
RMM:   6    -0.116894769293E+04    0.15514E-04   -0.20006E-04  1120   0.180E-02
   2 F= -.11759797E+04 E0= -.11759797E+04  d E =0.130666E-03  mag=     2.9999
       N       E                     dE             d eps       ncg     rms          rms(c)
DAV:   1    -0.116894810373E+04   -0.39529E-03   -0.78607E-02  1908   0.631E-01    0.128E-01
RMM:   2    -0.116894877109E+04   -0.66736E-03   -0.77887E-03  1702   0.971E-02    0.977E-02
RMM:   3    -0.116894858564E+04    0.18545E-03   -0.47918E-04  1110   0.241E-02    0.783E-02
RMM:   4    -0.116894844629E+04    0.13935E-03   -0.25876E-04  1186   0.198E-02    0.401E-02
RMM:   5    -0.116894841561E+04    0.30674E-04   -0.85585E-05  1038   0.129E-02
   3 F= -.11759804E+04 E0= -.11759804E+04  d E =-.567310E-03  mag=     3.0000
