       N       E                     dE             d eps       ncg     rms          rms(c)
DAV:   1     0.491807787609E+04    0.49181E+04   -0.17456E+05  1872   0.915E+02
DAV:   2    -0.495592236982E+02   -0.49676E+04   -0.45407E+04  2520   0.207E+02
DAV:   3    -0.118453511652E+04   -0.11350E+04   -0.11299E+04  2088   0.110E+02
DAV:   4    -0.123064188054E+04   -0.46107E+02   -0.45857E+02  2016   0.291E+01
DAV:   5    -0.123184462517E+04   -0.12027E+01   -0.11991E+01  2304   0.430E+00    0.665E+01
RMM:   6    -0.121848610158E+04    0.13359E+02   -0.26845E+01  1604   0.503E+00    0.516E+01
RMM:   7    -0.120272279691E+04    0.15763E+02   -0.86227E+00  1584   0.350E+00    0.415E+01
RMM:   8    -0.117283871999E+04    0.29884E+02   -0.52323E+01  1584   0.833E+00    0.261E+01
RMM:   9    -0.116871734041E+04    0.41214E+01   -0.33606E+01  1586   0.656E+00    0.130E+01
RMM:  10    -0.116955667407E+04   -0.83933E+00   -0.36645E+00  1599   0.229E+00    0.915E+00
RMM:  11    -0.116854484366E+04    0.10118E+01   -0.19055E+00  1619   0.123E+00    0.600E+00
RMM:  12    -0.116791752330E+04    0.62732E+00   -0.16413E+00  1584   0.145E+00    0.156E+00
RMM:  13    -0.116791395246E+04    0.35708E-02   -0.15884E-01  1584   0.478E-01    0.973E-01
RMM:  14    -0.116790687017E+04    0.70823E-02   -0.26762E-02  1606   0.189E-01    0.479E-01
RMM:  15    -0.116790812162E+04   -0.12515E-02   -0.10969E-02  1584   0.122E-01    0.376E-01
RMM:  16    -0.116790661964E+04    0.15020E-02   -0.25306E-03  1582   0.556E-02    0.219E-01
RMM:  17    -0.116790667456E+04   -0.54922E-04   -0.12243E-03  1400   0.375E-02    0.879E-02
RMM:  18    -0.116790670629E+04   -0.31723E-04   -0.73799E-04  1577   0.304E-02
   1 F= -.11750178E+04 E0= -.11750178E+04  d E =-.117502E+04  mag=    -0.0046
       N       E                     dE             d eps       ncg     rms          rms(c)
DAV:   1    -0.116789089915E+04    0.15775E-01   -0.34640E+00  1584   0.290E+00    0.776E-01
RMM:   2    -0.116790128396E+04   -0.10385E-01   -0.11816E-01  1585   0.456E-01    0.829E-01
RMM:   3    -0.116790112634E+04    0.15762E-03   -0.70908E-03  1764   0.966E-02    0.868E-01
RMM:   4    -0.116789811745E+04    0.30089E-02   -0.45940E-03  1586   0.769E-02    0.598E-01
RMM:   5    -0.116789744297E+04    0.67448E-03   -0.78150E-03  1584   0.981E-02    0.284E-01
RMM:   6    -0.116789696416E+04    0.47881E-03   -0.17134E-03  1491   0.408E-02    0.173E-01
RMM:   7    -0.116789693756E+04    0.26594E-04   -0.46471E-05  1022   0.101E-02
   2 F= -.11750094E+04 E0= -.11750094E+04  d E =0.832850E-02  mag=    -0.0001
       N       E                     dE             d eps       ncg     rms          rms(c)
DAV:   1    -0.116790750610E+04   -0.10542E-01   -0.14229E+00  1656   0.186E+00    0.490E-01
RMM:   2    -0.116791131018E+04   -0.38041E-02   -0.43847E-02  1587   0.283E-01    0.504E-01
RMM:   3    -0.116791100206E+04    0.30812E-03   -0.23644E-03  1543   0.561E-02    0.499E-01
RMM:   4    -0.116791070323E+04    0.29883E-03   -0.29890E-04  1138   0.217E-02    0.460E-01
RMM:   5    -0.116791100052E+04   -0.29729E-03   -0.11188E-02  1584   0.116E-01    0.292E-01
RMM:   6    -0.116791083100E+04    0.16953E-03   -0.89577E-04  1560   0.343E-02    0.261E-01
RMM:   7    -0.116791008983E+04    0.74117E-03   -0.63233E-04  1389   0.269E-02    0.166E-01
RMM:   8    -0.116790983645E+04    0.25338E-03   -0.65876E-04  1436   0.276E-02    0.750E-02
RMM:   9    -0.116790977207E+04    0.64379E-04   -0.20114E-04  1075   0.164E-02
   3 F= -.11750214E+04 E0= -.11750214E+04  d E =-.360338E-02  mag=    -0.0000
       N       E                     dE             d eps       ncg     rms          rms(c)
DAV:   1    -0.116791035490E+04   -0.51845E-03   -0.65067E-01  1692   0.128E+00    0.343E-01
RMM:   2    -0.116791117288E+04   -0.81798E-03   -0.14952E-02  1586   0.179E-01    0.336E-01
RMM:   3    -0.116791081683E+04    0.35605E-03   -0.83266E-04  1354   0.376E-02    0.317E-01
RMM:   4    -0.116790963062E+04    0.11862E-02   -0.36884E-03  1584   0.671E-02    0.128E-01
RMM:   5    -0.116790973584E+04   -0.10522E-03   -0.10455E-03  1584   0.367E-02    0.725E-02
RMM:   6    -0.116790959700E+04    0.13884E-03   -0.25925E-04  1158   0.171E-02    0.387E-02
RMM:   7    -0.116790959758E+04   -0.57393E-06   -0.60780E-05   997   0.104E-02
   4 F= -.11750214E+04 E0= -.11750214E+04  d E =-.555743E-04  mag=    -0.0000
       N       E                     dE             d eps       ncg     rms          rms(c)
DAV:   1    -0.116791113100E+04   -0.15340E-02   -0.16353E-01  1728   0.642E-01    0.168E-01
RMM:   2    -0.116791131474E+04   -0.18374E-03   -0.35927E-03  1586   0.874E-02    0.164E-01
RMM:   3    -0.116791122223E+04    0.92510E-04   -0.18491E-04  1076   0.189E-02
   5 F= -.11750229E+04 E0= -.11750229E+04  d E =-.156571E-02  mag=     0.0000
       N       E                     dE             d eps       ncg     rms          rms(c)
DAV:   1    -0.116791083594E+04    0.47880E-03   -0.33031E-01  1800   0.100E+00    0.249E-01
RMM:   2    -0.116791148892E+04   -0.65298E-03   -0.13295E-02  1586   0.158E-01    0.227E-01
RMM:   3    -0.116791053055E+04    0.95837E-03   -0.74135E-04  1438   0.352E-02    0.184E-01
RMM:   4    -0.116790965582E+04    0.87473E-03   -0.46981E-03  1584   0.764E-02    0.589E-02
RMM:   5    -0.116790958917E+04    0.66646E-04   -0.62816E-05  1032   0.128E-02
   6 F= -.11750211E+04 E0= -.11750211E+04  d E =0.182096E-02  mag=     0.0000
       N       E                     dE             d eps       ncg     rms          rms(c)
DAV:   1    -0.116791185904E+04   -0.22032E-02   -0.17105E-01  1800   0.719E-01    0.147E-01
RMM:   2    -0.116791217302E+04   -0.31398E-03   -0.65226E-03  1586   0.109E-01    0.133E-01
RMM:   3    -0.116791176210E+04    0.41092E-03   -0.31796E-04  1126   0.238E-02    0.110E-01
RMM:   4    -0.116791133371E+04    0.42839E-03   -0.20717E-03  1584   0.510E-02    0.328E-02
RMM:   5    -0.116791132544E+04    0.82650E-05   -0.28650E-05   982   0.884E-03
   7 F= -.11750230E+04 E0= -.11750230E+04  d E =-.474879E-04  mag=     0.0000
