       N       E                     dE             d eps       ncg     rms          rms(c)
DAV:   1     0.481298355567E+04    0.48130E+04   -0.17194E+05  1872   0.903E+02
DAV:   2    -0.810841532529E+02   -0.48941E+04   -0.44594E+04  2520   0.206E+02
DAV:   3    -0.119031685285E+04   -0.11092E+04   -0.11039E+04  2124   0.108E+02
DAV:   4    -0.123509222439E+04   -0.44775E+02   -0.44587E+02  2016   0.285E+01
DAV:   5    -0.123625955991E+04   -0.11673E+01   -0.11655E+01  2376   0.427E+00    0.708E+01
RMM:   6    -0.121937394353E+04    0.16886E+02   -0.22034E+01  1612   0.469E+00    0.496E+01
RMM:   7    -0.120459533731E+04    0.14779E+02   -0.94597E+00  1590   0.353E+00    0.410E+01
RMM:   8    -0.117685897560E+04    0.27736E+02   -0.39498E+01  1584   0.716E+00    0.255E+01
RMM:   9    -0.116921013696E+04    0.76488E+01   -0.19138E+01  1584   0.502E+00    0.163E+01
RMM:  10    -0.116977126931E+04   -0.56113E+00   -0.11477E+01  1584   0.387E+00    0.894E+00
RMM:  11    -0.116976812837E+04    0.31409E-02   -0.66697E-01  1631   0.105E+00    0.615E+00
RMM:  12    -0.116920909562E+04    0.55903E+00   -0.25970E+00  1584   0.175E+00    0.183E+00
RMM:  13    -0.116915405020E+04    0.55045E-01   -0.84457E-02  1614   0.333E-01    0.743E-01
RMM:  14    -0.116915222175E+04    0.18285E-02   -0.18719E-02  1659   0.140E-01    0.493E-01
RMM:  15    -0.116915215715E+04    0.64602E-04   -0.11014E-02  1596   0.117E-01    0.260E-01
RMM:  16    -0.116915170211E+04    0.45504E-03   -0.21711E-03  1589   0.546E-02    0.206E-01
RMM:  17    -0.116915194955E+04   -0.24744E-03   -0.10219E-03  1465   0.363E-02    0.117E-01
RMM:  18    -0.116915209961E+04   -0.15006E-03   -0.70013E-04  1593   0.313E-02    0.756E-02
RMM:  19    -0.116915208576E+04    0.13850E-04   -0.11473E-04  1068   0.136E-02
   1 F= -.11761797E+04 E0= -.11761797E+04  d E =-.117618E+04  mag=     1.9985
       N       E                     dE             d eps       ncg     rms          rms(c)
DAV:   1    -0.116915032304E+04    0.17766E-02   -0.33158E-01  1800   0.111E+00    0.192E-01
RMM:   2    -0.116915208227E+04   -0.17592E-02   -0.20493E-02  1594   0.177E-01    0.166E-01
RMM:   3    -0.116915174756E+04    0.33471E-03   -0.11796E-03  1529   0.425E-02    0.149E-01
RMM:   4    -0.116915135536E+04    0.39220E-03   -0.67887E-04  1544   0.298E-02    0.908E-02
RMM:   5    -0.116915122957E+04    0.12580E-03   -0.68901E-04  1554   0.298E-02    0.469E-02
RMM:   6    -0.116915122713E+04    0.24329E-05   -0.91779E-05  1042   0.128E-02
   2 F= -.11761791E+04 E0= -.11761791E+04  d E =0.669306E-03  mag=     2.0000
       N       E                     dE             d eps       ncg     rms          rms(c)
DAV:   1    -0.116915243591E+04   -0.12063E-02   -0.12093E-01  1728   0.666E-01    0.114E-01
RMM:   2    -0.116915293209E+04   -0.49618E-03   -0.64484E-03  1589   0.102E-01    0.996E-02
RMM:   3    -0.116915278296E+04    0.14913E-03   -0.35332E-04  1141   0.233E-02    0.892E-02
RMM:   4    -0.116915260993E+04    0.17303E-03   -0.28784E-04  1170   0.210E-02    0.507E-02
RMM:   5    -0.116915255862E+04    0.51310E-04   -0.25592E-04  1107   0.200E-02
   3 F= -.11761803E+04 E0= -.11761803E+04  d E =-.546733E-03  mag=     2.0000
