       N       E                     dE             d eps       ncg     rms          rms(c)
DAV:   1     0.461868323528E+04    0.46187E+04   -0.17435E+05  1908   0.906E+02
DAV:   2    -0.116906207324E+03   -0.47356E+04   -0.42934E+04  2592   0.205E+02
DAV:   3    -0.118948892716E+04   -0.10726E+04   -0.10684E+04  2160   0.105E+02
DAV:   4    -0.123319809469E+04   -0.43709E+02   -0.43452E+02  2088   0.276E+01
DAV:   5    -0.123453307152E+04   -0.13350E+01   -0.13311E+01  2484   0.416E+00    0.621E+01
RMM:   6    -0.122147378732E+04    0.13059E+02   -0.74692E+00  1591   0.309E+00    0.510E+01
RMM:   7    -0.118181663554E+04    0.39657E+02   -0.61330E+01  1590   0.874E+00    0.291E+01
RMM:   8    -0.117179376032E+04    0.10023E+02   -0.20092E+01  1598   0.506E+00    0.202E+01
RMM:   9    -0.117042640735E+04    0.13674E+01   -0.22052E+01  1584   0.532E+00    0.925E+00
RMM:  10    -0.117089537081E+04   -0.46896E+00   -0.13880E+00  1616   0.146E+00    0.655E+00
RMM:  11    -0.117001567617E+04    0.87969E+00   -0.47570E+00  1584   0.236E+00    0.250E+00
RMM:  12    -0.116990961112E+04    0.10607E+00   -0.23822E-01  1585   0.535E-01    0.910E-01
RMM:  13    -0.116989433753E+04    0.15274E-01   -0.50512E-02  1669   0.215E-01    0.348E-01
RMM:  14    -0.116989409029E+04    0.24725E-03   -0.11140E-02  1682   0.114E-01    0.191E-01
RMM:  15    -0.116989426148E+04   -0.17120E-03   -0.37909E-03  1675   0.657E-02    0.127E-01
RMM:  16    -0.116989461214E+04   -0.35065E-03   -0.77283E-04  1530   0.319E-02    0.887E-02
RMM:  17    -0.116989487503E+04   -0.26290E-03   -0.46184E-04  1346   0.279E-02    0.612E-02
RMM:  18    -0.116989488726E+04   -0.12222E-04   -0.34040E-04  1245   0.238E-02
   1 F= -.11769872E+04 E0= -.11769791E+04  d E =-.117699E+04  mag=    -0.7133
       N       E                     dE             d eps       ncg     rms          rms(c)
DAV:   1    -0.116988808869E+04    0.67863E-02   -0.27789E+00  1728   0.234E+00    0.834E-01
RMM:   2    -0.116989371855E+04   -0.56299E-02   -0.73491E-02  1664   0.329E-01    0.783E-01
RMM:   3    -0.116989243191E+04    0.12866E-02   -0.49372E-03  1753   0.724E-02    0.701E-01
RMM:   4    -0.116989293726E+04   -0.50535E-03   -0.14101E-02  1590   0.115E-01    0.280E-01
RMM:   5    -0.116989169162E+04    0.12456E-02   -0.95047E-04  1393   0.302E-02    0.115E-01
RMM:   6    -0.116989141922E+04    0.27240E-03   -0.11415E-03  1476   0.279E-02    0.447E-02
RMM:   7    -0.116989140751E+04    0.11712E-04   -0.10509E-04  1072   0.114E-02
   2 F= -.11769837E+04 E0= -.11769763E+04  d E =0.342385E-02  mag=    -0.7425
       N       E                     dE             d eps       ncg     rms          rms(c)
DAV:   1    -0.116989841725E+04   -0.69980E-02   -0.88502E-01  1656   0.132E+00    0.473E-01
RMM:   2    -0.116989984475E+04   -0.14275E-02   -0.19794E-02  1644   0.176E-01    0.446E-01
RMM:   3    -0.116989938161E+04    0.46313E-03   -0.12411E-03  1466   0.380E-02    0.386E-01
RMM:   4    -0.116989967639E+04   -0.29478E-03   -0.42610E-03  1588   0.627E-02    0.147E-01
RMM:   5    -0.116989917637E+04    0.50002E-03   -0.50239E-04  1218   0.203E-02    0.466E-02
RMM:   6    -0.116989913682E+04    0.39550E-04   -0.23504E-04  1131   0.133E-02
   3 F= -.11769914E+04 E0= -.11769840E+04  d E =-.426718E-02  mag=    -0.7427
       N       E                     dE             d eps       ncg     rms          rms(c)
DAV:   1    -0.116990018963E+04   -0.10133E-02   -0.63665E-01  1728   0.124E+00    0.315E-01
RMM:   2    -0.116990090948E+04   -0.71985E-03   -0.13505E-02  1609   0.169E-01    0.284E-01
RMM:   3    -0.116990024483E+04    0.66466E-03   -0.91118E-04  1574   0.382E-02    0.241E-01
RMM:   4    -0.116989987116E+04    0.37367E-03   -0.49890E-03  1586   0.734E-02    0.104E-01
RMM:   5    -0.116989969534E+04    0.17581E-03   -0.15279E-04  1092   0.157E-02    0.674E-02
RMM:   6    -0.116989964653E+04    0.48818E-04   -0.45268E-04  1288   0.190E-02
   4 F= -.11769922E+04 E0= -.11769848E+04  d E =-.776227E-03  mag=    -0.7423
       N       E                     dE             d eps       ncg     rms          rms(c)
DAV:   1    -0.116990071212E+04   -0.10168E-02   -0.11787E-01  1728   0.534E-01    0.137E-01
RMM:   2    -0.116990081716E+04   -0.10503E-03   -0.26667E-03  1615   0.750E-02    0.124E-01
RMM:   3    -0.116990065139E+04    0.16577E-03   -0.16047E-04  1084   0.172E-02    0.105E-01
RMM:   4    -0.116990054150E+04    0.10988E-03   -0.12623E-03  1576   0.375E-02    0.455E-02
RMM:   5    -0.116990050070E+04    0.40807E-04   -0.34587E-05   998   0.800E-03
   5 F= -.11769930E+04 E0= -.11769855E+04  d E =-.151732E-02  mag=    -0.7427
       N       E                     dE             d eps       ncg     rms          rms(c)
DAV:   1    -0.116990175486E+04   -0.12134E-02   -0.34921E-01  1728   0.918E-01    0.153E-01
RMM:   2    -0.116990207796E+04   -0.32311E-03   -0.65550E-03  1596   0.119E-01    0.144E-01
RMM:   3    -0.116990183972E+04    0.23824E-03   -0.39515E-04  1216   0.262E-02    0.127E-01
RMM:   4    -0.116990147224E+04    0.36748E-03   -0.26958E-03  1584   0.555E-02    0.425E-02
RMM:   5    -0.116990142355E+04    0.48694E-04   -0.39129E-05  1028   0.987E-03
   6 F= -.11769942E+04 E0= -.11769867E+04  d E =-.120136E-02  mag=    -0.7407
       N       E                     dE             d eps       ncg     rms          rms(c)
DAV:   1    -0.116990158370E+04   -0.11146E-03   -0.17963E-02  1728   0.210E-01    0.282E-02
RMM:   2    -0.116990159776E+04   -0.14053E-04   -0.24935E-04  1130   0.237E-02
   7 F= -.11769943E+04 E0= -.11769868E+04  d E =-.130947E-02  mag=    -0.7410
       N       E                     dE             d eps       ncg     rms          rms(c)
DAV:   1    -0.116990218239E+04   -0.59868E-03   -0.23364E-01  1728   0.745E-01    0.101E-01
RMM:   2    -0.116990244833E+04   -0.26594E-03   -0.38282E-03  1598   0.925E-02    0.958E-02
RMM:   3    -0.116990239698E+04    0.51344E-04   -0.22576E-04  1164   0.203E-02
   8 F= -.11769952E+04 E0= -.11769878E+04  d E =-.943545E-03  mag=    -0.7420
       N       E                     dE             d eps       ncg     rms          rms(c)
DAV:   1    -0.116990229344E+04    0.15489E-03   -0.58856E-03  1728   0.122E-01    0.484E-02
RMM:   2    -0.116990227778E+04    0.15658E-04   -0.87518E-05  1062   0.144E-02
   9 F= -.11769951E+04 E0= -.11769877E+04  d E =-.851158E-03  mag=    -0.7420
