       N       E                     dE             d eps       ncg     rms          rms(c)
DAV:   1     0.495684578802E+04    0.49568E+04   -0.17334E+05  1872   0.920E+02
DAV:   2    -0.426283719386E+02   -0.49995E+04   -0.45822E+04  2520   0.210E+02
DAV:   3    -0.120008980018E+04   -0.11575E+04   -0.11508E+04  2088   0.112E+02
DAV:   4    -0.124881463929E+04   -0.48725E+02   -0.48428E+02  2052   0.308E+01
DAV:   5    -0.125012557864E+04   -0.13109E+01   -0.13074E+01  2304   0.460E+00    0.690E+01
RMM:   6    -0.123123547343E+04    0.18890E+02   -0.25529E+01  1596   0.557E+00    0.557E+01
RMM:   7    -0.121479049848E+04    0.16445E+02   -0.10701E+01  1586   0.391E+00    0.422E+01
RMM:   8    -0.118957844599E+04    0.25212E+02   -0.31587E+01  1584   0.666E+00    0.277E+01
RMM:   9    -0.117964288139E+04    0.99356E+01   -0.21339E+01  1586   0.572E+00    0.190E+01
RMM:  10    -0.118097185456E+04   -0.13290E+01   -0.14787E+01  1584   0.472E+00    0.880E+00
RMM:  11    -0.118080020789E+04    0.17165E+00   -0.93633E-01  1630   0.190E+00    0.692E+00
RMM:  12    -0.118029083454E+04    0.50937E+00   -0.40617E-01  1584   0.716E-01    0.522E+00
RMM:  13    -0.118006159224E+04    0.22924E+00   -0.93649E-01  1584   0.116E+00    0.167E+00
RMM:  14    -0.118003264386E+04    0.28948E-01   -0.70668E-02  1644   0.434E-01    0.106E+00
RMM:  15    -0.118003093851E+04    0.17054E-02   -0.23456E-02  1601   0.169E-01    0.784E-01
RMM:  16    -0.118003079152E+04    0.14699E-03   -0.36308E-03  1620   0.918E-02    0.614E-01
RMM:  17    -0.118003068387E+04    0.10765E-03   -0.21369E-03  1567   0.552E-02    0.419E-01
RMM:  18    -0.118003065984E+04    0.24031E-04   -0.12714E-03  1589   0.485E-02    0.249E-01
RMM:  19    -0.118003068502E+04   -0.25182E-04   -0.26259E-04  1109   0.260E-02
   1 F= -.11874279E+04 E0= -.11874278E+04  d E =-.118743E+04  mag=    -0.9938
       N       E                     dE             d eps       ncg     rms          rms(c)
DAV:   1    -0.118003008291E+04    0.57693E-03   -0.36901E-01  1728   0.982E-01    0.203E-01
RMM:   2    -0.118003068373E+04   -0.60082E-03   -0.97324E-03  1591   0.146E-01    0.176E-01
RMM:   3    -0.118003035663E+04    0.32710E-03   -0.71410E-04  1499   0.473E-02    0.148E-01
RMM:   4    -0.118003012671E+04    0.22992E-03   -0.21640E-04  1088   0.205E-02    0.120E-01
RMM:   5    -0.118002984642E+04    0.28029E-03   -0.14538E-03  1584   0.442E-02    0.381E-02
RMM:   6    -0.118002984731E+04   -0.89423E-06   -0.57482E-05  1007   0.154E-02
   2 F= -.11874274E+04 E0= -.11874273E+04  d E =0.506157E-03  mag=    -0.9980
       N       E                     dE             d eps       ncg     rms          rms(c)
DAV:   1    -0.118003161802E+04   -0.17716E-02   -0.12000E-01  1692   0.557E-01    0.108E-01
RMM:   2    -0.118003168428E+04   -0.66255E-04   -0.25177E-03  1584   0.789E-02    0.975E-02
RMM:   3    -0.118003155216E+04    0.13211E-03   -0.13968E-04  1045   0.232E-02    0.995E-02
RMM:   4    -0.118003153071E+04    0.21450E-04   -0.44080E-05   975   0.129E-02
   3 F= -.11874289E+04 E0= -.11874288E+04  d E =-.987657E-03  mag=    -0.9980
