       N       E                     dE             d eps       ncg     rms          rms(c)
DAV:   1     0.473617530429E+04    0.47362E+04   -0.17683E+05  1908   0.920E+02
DAV:   2    -0.105974254874E+03   -0.48421E+04   -0.44377E+04  2592   0.207E+02
DAV:   3    -0.120317015148E+04   -0.10972E+04   -0.10922E+04  2088   0.107E+02
DAV:   4    -0.124727356268E+04   -0.44103E+02   -0.43863E+02  2052   0.280E+01
DAV:   5    -0.124838716227E+04   -0.11136E+01   -0.11110E+01  2268   0.398E+00    0.826E+01
RMM:   6    -0.123550759773E+04    0.12880E+02   -0.72384E+00  1584   0.305E+00    0.720E+01
RMM:   7    -0.118738954744E+04    0.48118E+02   -0.90097E+01  1584   0.107E+01    0.450E+01
RMM:   8    -0.118443160746E+04    0.29579E+01   -0.55696E+01  1584   0.837E+00    0.207E+01
RMM:   9    -0.118667427508E+04   -0.22427E+01   -0.80007E+00  1596   0.330E+00    0.123E+01
RMM:  10    -0.118368372750E+04    0.29905E+01   -0.38982E+00  1584   0.203E+00    0.664E+00
RMM:  11    -0.118285682261E+04    0.82690E+00   -0.17484E+00  1584   0.138E+00    0.330E+00
RMM:  12    -0.118270659399E+04    0.15023E+00   -0.46488E-01  1585   0.760E-01    0.228E+00
RMM:  13    -0.118264926223E+04    0.57332E-01   -0.12575E-01  1596   0.368E-01    0.977E-01
RMM:  14    -0.118264488109E+04    0.43811E-02   -0.31374E-02  1607   0.183E-01    0.604E-01
RMM:  15    -0.118264576363E+04   -0.88254E-03   -0.11104E-02  1585   0.121E-01    0.489E-01
RMM:  16    -0.118264734328E+04   -0.15797E-02   -0.51240E-03  1591   0.805E-02    0.302E-01
RMM:  17    -0.118264625657E+04    0.10867E-02   -0.47602E-03  1585   0.740E-02    0.188E-01
RMM:  18    -0.118264680301E+04   -0.54643E-03   -0.56835E-04  1361   0.280E-02    0.153E-01
RMM:  19    -0.118264696913E+04   -0.16613E-03   -0.48326E-04  1314   0.248E-02    0.675E-02
RMM:  20    -0.118264702674E+04   -0.57609E-04   -0.10980E-04  1054   0.122E-02
   1 F= -.11901058E+04 E0= -.11900942E+04  d E =-.119011E+04  mag=    -0.9754
       N       E                     dE             d eps       ncg     rms          rms(c)
DAV:   1    -0.118264501510E+04    0.19540E-02   -0.62583E-01  1656   0.119E+00    0.523E-01
RMM:   2    -0.118264607711E+04   -0.10620E-02   -0.16941E-02  1584   0.173E-01    0.487E-01
RMM:   3    -0.118264582050E+04    0.25661E-03   -0.93568E-04  1476   0.377E-02    0.433E-01
RMM:   4    -0.118264554349E+04    0.27701E-03   -0.25554E-03  1576   0.544E-02    0.167E-01
RMM:   5    -0.118264570806E+04   -0.16457E-03   -0.52895E-04  1423   0.263E-02    0.921E-02
RMM:   6    -0.118264559251E+04    0.11555E-03   -0.48230E-04  1313   0.216E-02    0.330E-02
RMM:   7    -0.118264560306E+04   -0.10546E-04   -0.21540E-05   999   0.690E-03
   2 F= -.11901052E+04 E0= -.11900929E+04  d E =0.547160E-03  mag=    -0.9729
       N       E                     dE             d eps       ncg     rms          rms(c)
DAV:   1    -0.118264762290E+04   -0.20304E-02   -0.20609E-01  1800   0.683E-01    0.297E-01
RMM:   2    -0.118264784965E+04   -0.22676E-03   -0.47901E-03  1586   0.950E-02    0.272E-01
RMM:   3    -0.118264773485E+04    0.11481E-03   -0.23542E-04  1145   0.204E-02    0.237E-01
RMM:   4    -0.118264766690E+04    0.67951E-04   -0.10914E-03  1548   0.361E-02    0.785E-02
RMM:   5    -0.118264769395E+04   -0.27056E-04   -0.81390E-05  1020   0.123E-02
   3 F= -.11901068E+04 E0= -.11900948E+04  d E =-.103749E-02  mag=    -0.9727
       N       E                     dE             d eps       ncg     rms          rms(c)
DAV:   1    -0.118264854780E+04   -0.88091E-03   -0.44469E-01  1656   0.953E-01    0.381E-01
RMM:   2    -0.118264875493E+04   -0.20712E-03   -0.75810E-03  1584   0.118E-01    0.367E-01
RMM:   3    -0.118264854358E+04    0.21135E-03   -0.34001E-04  1184   0.242E-02    0.340E-01
RMM:   4    -0.118264831093E+04    0.23264E-03   -0.15576E-03  1582   0.432E-02    0.127E-01
RMM:   5    -0.118264844298E+04   -0.13205E-03   -0.34573E-04  1213   0.218E-02    0.665E-02
RMM:   6    -0.118264838801E+04    0.54972E-04   -0.17517E-04  1062   0.140E-02
   4 F= -.11901079E+04 E0= -.11900958E+04  d E =-.111673E-02  mag=    -0.9738
       N       E                     dE             d eps       ncg     rms          rms(c)
DAV:   1    -0.118264844825E+04   -0.52718E-05   -0.50898E-03  1836   0.102E-01    0.445E-02
RMM:   2    -0.118264843916E+04    0.90903E-05   -0.85339E-05  1005   0.133E-02
   5 F= -.11901079E+04 E0= -.11900958E+04  d E =-.112224E-02  mag=    -0.9739
       N       E                     dE             d eps       ncg     rms          rms(c)
DAV:   1    -0.118264890907E+04   -0.46082E-03   -0.24952E-01  1728   0.740E-01    0.149E-01
RMM:   2    -0.118264913191E+04   -0.22284E-03   -0.41613E-03  1584   0.911E-02    0.136E-01
RMM:   3    -0.118264908094E+04    0.50965E-04   -0.17963E-04  1121   0.191E-02
   6 F= -.11901087E+04 E0= -.11900965E+04  d E =-.776551E-03  mag=    -0.9741
       N       E                     dE             d eps       ncg     rms          rms(c)
DAV:   1    -0.118264879279E+04    0.33912E-03   -0.20958E-01  1728   0.678E-01    0.195E-01
RMM:   2    -0.118264884574E+04   -0.52948E-04   -0.31925E-03  1584   0.784E-02    0.179E-01
RMM:   3    -0.118264882038E+04    0.25354E-04   -0.15065E-04  1114   0.173E-02
   7 F= -.11901086E+04 E0= -.11900963E+04  d E =-.641617E-03  mag=    -0.9736
