       N       E                     dE             d eps       ncg     rms          rms(c)
DAV:   1     0.466456455815E+04    0.46646E+04   -0.17478E+05  1908   0.907E+02
DAV:   2    -0.112588466044E+03   -0.47772E+04   -0.43530E+04  2520   0.205E+02
DAV:   3    -0.119122880543E+04   -0.10786E+04   -0.10725E+04  2160   0.106E+02
DAV:   4    -0.123321141473E+04   -0.41983E+02   -0.41788E+02  2016   0.274E+01
DAV:   5    -0.123428645879E+04   -0.10750E+01   -0.10732E+01  2412   0.406E+00    0.665E+01
RMM:   6    -0.122015724034E+04    0.14129E+02   -0.32874E+01  1587   0.536E+00    0.551E+01
RMM:   7    -0.120413213447E+04    0.16025E+02   -0.69079E+00  1584   0.289E+00    0.437E+01
RMM:   8    -0.117969118037E+04    0.24441E+02   -0.29692E+01  1584   0.624E+00    0.312E+01
RMM:   9    -0.116630430535E+04    0.13387E+02   -0.19226E+01  1584   0.501E+00    0.217E+01
RMM:  10    -0.116533087316E+04    0.97343E+00   -0.15018E+01  1584   0.438E+00    0.106E+01
RMM:  11    -0.116592886317E+04   -0.59799E+00   -0.36333E+00  1587   0.222E+00    0.763E+00
RMM:  12    -0.116566751097E+04    0.26135E+00   -0.23484E+00  1584   0.150E+00    0.594E+00
RMM:  13    -0.116503564852E+04    0.63186E+00   -0.78977E-01  1584   0.792E-01    0.335E+00
RMM:  14    -0.116489384958E+04    0.14180E+00   -0.16552E-01  1584   0.431E-01    0.172E+00
RMM:  15    -0.116486442422E+04    0.29425E-01   -0.62915E-02  1589   0.256E-01    0.653E-01
RMM:  16    -0.116486604390E+04   -0.16197E-02   -0.69593E-03  1608   0.946E-02    0.626E-01
RMM:  17    -0.116486215960E+04    0.38843E-02   -0.48326E-03  1584   0.673E-02    0.325E-01
RMM:  18    -0.116486174371E+04    0.41588E-03   -0.23260E-03  1514   0.443E-02    0.139E-01
RMM:  19    -0.116486177420E+04   -0.30482E-04   -0.36566E-04  1173   0.199E-02
   1 F= -.11719316E+04 E0= -.11719316E+04  d E =-.117193E+04  mag=    -0.0029
       N       E                     dE             d eps       ncg     rms          rms(c)
DAV:   1    -0.116485817937E+04    0.35643E-02   -0.10910E+00  1620   0.164E+00    0.459E-01
RMM:   2    -0.116486307337E+04   -0.48940E-02   -0.54307E-02  1584   0.255E-01    0.440E-01
RMM:   3    -0.116486255839E+04    0.51498E-03   -0.23092E-03  1438   0.452E-02    0.412E-01
RMM:   4    -0.116486186159E+04    0.69680E-03   -0.20022E-03  1584   0.504E-02    0.179E-01
RMM:   5    -0.116486198565E+04   -0.12406E-03   -0.93467E-04  1584   0.344E-02    0.603E-02
RMM:   6    -0.116486188212E+04    0.10353E-03   -0.30357E-04  1204   0.177E-02    0.257E-02
RMM:   7    -0.116486187549E+04    0.66321E-05   -0.20591E-05  1006   0.662E-03
   2 F= -.11719316E+04 E0= -.11719316E+04  d E =0.205930E-04  mag=     0.0002
       N       E                     dE             d eps       ncg     rms          rms(c)
DAV:   1    -0.116486231977E+04   -0.43765E-03   -0.29495E-01  1620   0.851E-01    0.229E-01
RMM:   2    -0.116486354886E+04   -0.12291E-02   -0.14022E-02  1584   0.128E-01    0.227E-01
RMM:   3    -0.116486341499E+04    0.13387E-03   -0.53584E-04  1139   0.216E-02    0.217E-01
RMM:   4    -0.116486321027E+04    0.20472E-03   -0.40338E-04  1308   0.237E-02    0.111E-01
RMM:   5    -0.116486322798E+04   -0.17705E-04   -0.36156E-04  1249   0.226E-02
   3 F= -.11719330E+04 E0= -.11719330E+04  d E =-.139311E-02  mag=    -0.0000
       N       E                     dE             d eps       ncg     rms          rms(c)
DAV:   1    -0.116486412923E+04   -0.91896E-03   -0.33398E-01  1728   0.961E-01    0.240E-01
RMM:   2    -0.116486490412E+04   -0.77489E-03   -0.13727E-02  1584   0.141E-01    0.208E-01
RMM:   3    -0.116486432039E+04    0.58373E-03   -0.57388E-04  1216   0.281E-02    0.178E-01
RMM:   4    -0.116486358844E+04    0.73196E-03   -0.29656E-03  1584   0.593E-02    0.577E-02
RMM:   5    -0.116486359602E+04   -0.75850E-05   -0.12541E-04  1064   0.150E-02
   4 F= -.11719331E+04 E0= -.11719331E+04  d E =-.147738E-03  mag=    -0.0000
       N       E                     dE             d eps       ncg     rms          rms(c)
DAV:   1    -0.116486399697E+04   -0.40853E-03   -0.70375E-02  1728   0.442E-01    0.976E-02
RMM:   2    -0.116486412724E+04   -0.13027E-03   -0.27639E-03  1506   0.621E-02    0.851E-02
RMM:   3    -0.116486399518E+04    0.13205E-03   -0.11917E-04  1022   0.133E-02    0.723E-02
RMM:   4    -0.116486381819E+04    0.17699E-03   -0.62218E-04  1540   0.274E-02    0.243E-02
RMM:   5    -0.116486382298E+04   -0.47820E-05   -0.33994E-05   992   0.781E-03
   5 F= -.11719334E+04 E0= -.11719334E+04  d E =-.475733E-03  mag=    -0.0000
