       N       E                     dE             d eps       ncg     rms          rms(c)
DAV:   1     0.465255808654E+04    0.46526E+04   -0.17880E+05  1888   0.946E+02
DAV:   2    -0.944889700771E+02   -0.47470E+04   -0.43362E+04  2400   0.212E+02
DAV:   3    -0.120189751324E+04   -0.11074E+04   -0.11004E+04  2016   0.110E+02
DAV:   4    -0.124819573475E+04   -0.46298E+02   -0.46029E+02  1952   0.297E+01
DAV:   5    -0.124937072607E+04   -0.11750E+01   -0.11723E+01  2336   0.443E+00    0.801E+01
RMM:   6    -0.123716664615E+04    0.12204E+02   -0.84960E+01  1739   0.102E+01    0.672E+01
RMM:   7    -0.121685008799E+04    0.20317E+02   -0.10773E+01  1599   0.428E+00    0.456E+01
RMM:   8    -0.120023817824E+04    0.16612E+02   -0.14266E+01  1590   0.477E+00    0.358E+01
RMM:   9    -0.118218548765E+04    0.18053E+02   -0.23341E+01  1628   0.634E+00    0.253E+01
RMM:  10    -0.117457597261E+04    0.76095E+01   -0.15821E+01  1563   0.536E+00    0.176E+01
RMM:  11    -0.117529742876E+04   -0.72146E+00   -0.13070E+01  1595   0.491E+00    0.121E+01
RMM:  12    -0.117542391445E+04   -0.12649E+00   -0.16578E+00  1757   0.222E+00    0.822E+00
RMM:  13    -0.117484680639E+04    0.57711E+00   -0.11637E+00  1555   0.144E+00    0.404E+00
RMM:  14    -0.117478625374E+04    0.60553E-01   -0.30660E-01  1569   0.728E-01    0.270E+00
RMM:  15    -0.117474670113E+04    0.39553E-01   -0.55209E-02  1632   0.376E-01    0.133E+00
RMM:  16    -0.117474400203E+04    0.26991E-02   -0.71646E-02  1563   0.347E-01    0.114E+00
RMM:  17    -0.117474805509E+04   -0.40531E-02   -0.11436E-02  1589   0.163E-01    0.360E-01
RMM:  18    -0.117474839223E+04   -0.33714E-03   -0.31720E-03  1659   0.768E-02    0.675E-01
RMM:  19    -0.117474790019E+04    0.49204E-03   -0.16123E-03  1741   0.549E-02    0.307E-01
RMM:  20    -0.117474817643E+04   -0.27624E-03   -0.76231E-04  1594   0.381E-02    0.415E-01
RMM:  21    -0.117474829291E+04   -0.11648E-03   -0.19577E-04  1576   0.216E-02    0.523E-01
RMM:  22    -0.117474813594E+04    0.15697E-03   -0.23971E-04  1632   0.203E-02    0.287E-01
RMM:  23    -0.117474817682E+04   -0.40881E-04   -0.18404E-04  1638   0.169E-02    0.656E-02
RMM:  24    -0.117474825419E+04   -0.77371E-04   -0.36323E-05  1593   0.103E-02    0.686E-02
RMM:  25    -0.117474825393E+04    0.25678E-06   -0.13021E-05  1576   0.524E-03    0.234E-02
RMM:  26    -0.117474825514E+04   -0.12111E-05   -0.86883E-06  1428   0.417E-03    0.776E-03
RMM:  27    -0.117474825557E+04   -0.42279E-06   -0.18560E-06  1075   0.210E-03
   1 F= -.11818378E+04 E0= -.11818279E+04  d E =-.118184E+04  mag=     2.5979
       N       E                     dE             d eps       ncg     rms          rms(c)
DAV:   1    -0.117474615965E+04    0.20955E-02   -0.34082E-01  1824   0.122E+00    0.333E-01
RMM:   2    -0.117474789236E+04   -0.17327E-02   -0.17271E-02  1722   0.196E-01    0.511E-01
RMM:   3    -0.117474795383E+04   -0.61466E-04   -0.41932E-03  1908   0.902E-02    0.481E-01
RMM:   4    -0.117474765861E+04    0.29522E-03   -0.73499E-04  1793   0.422E-02    0.329E-01
RMM:   5    -0.117474729424E+04    0.36437E-03   -0.73723E-04  1582   0.336E-02    0.179E-01
RMM:   6    -0.117474723705E+04    0.57189E-04   -0.25990E-04  1619   0.211E-02    0.803E-02
RMM:   7    -0.117474725070E+04   -0.13648E-04   -0.13121E-04  1593   0.174E-02    0.996E-02
RMM:   8    -0.117474726729E+04   -0.16594E-04   -0.33272E-05  1654   0.932E-03    0.139E-01
RMM:   9    -0.117474724559E+04    0.21704E-04   -0.87619E-06  1509   0.506E-03    0.124E-01
RMM:  10    -0.117474724785E+04   -0.22606E-05   -0.11349E-05  1436   0.410E-03    0.803E-02
RMM:  11    -0.117474725421E+04   -0.63566E-05   -0.19291E-05  1609   0.547E-03    0.210E-02
RMM:  12    -0.117474726212E+04   -0.79186E-05   -0.40905E-06  1210   0.328E-03    0.672E-03
RMM:  13    -0.117474726469E+04   -0.25702E-05   -0.15542E-06  1083   0.186E-03    0.587E-03
RMM:  14    -0.117474726462E+04    0.78486E-07   -0.10415E-06  1007   0.141E-03
   2 F= -.11818375E+04 E0= -.11818274E+04  d E =0.285198E-03  mag=     2.5805
       N       E                     dE             d eps       ncg     rms          rms(c)
DAV:   1    -0.117474840215E+04   -0.11375E-02   -0.10169E-01  1792   0.660E-01    0.178E-01
RMM:   2    -0.117474883549E+04   -0.43334E-03   -0.45506E-03  1707   0.102E-01    0.281E-01
RMM:   3    -0.117474881271E+04    0.22787E-04   -0.80553E-04  1775   0.441E-02    0.251E-01
RMM:   4    -0.117474871681E+04    0.95899E-04   -0.20174E-04  1728   0.222E-02    0.174E-01
RMM:   5    -0.117474861051E+04    0.10630E-03   -0.21350E-04  1597   0.182E-02    0.830E-02
RMM:   6    -0.117474860159E+04    0.89240E-05   -0.67820E-05  1639   0.109E-02    0.390E-02
RMM:   7    -0.117474860275E+04   -0.11671E-05   -0.44464E-05  1572   0.975E-03    0.524E-02
RMM:   8    -0.117474860727E+04   -0.45171E-05   -0.10718E-05  1580   0.539E-03    0.786E-02
RMM:   9    -0.117474859837E+04    0.88982E-05   -0.25239E-06  1117   0.294E-03    0.730E-02
RMM:  10    -0.117474859735E+04    0.10163E-05   -0.17481E-06  1089   0.178E-03    0.567E-02
RMM:  11    -0.117474859889E+04   -0.15320E-05   -0.63260E-06  1311   0.289E-03    0.140E-02
RMM:  12    -0.117474860285E+04   -0.39678E-05   -0.12525E-06  1074   0.182E-03    0.466E-03
RMM:  13    -0.117474860411E+04   -0.12563E-05   -0.35777E-07   992   0.110E-03    0.376E-03
RMM:  14    -0.117474860427E+04   -0.15506E-06   -0.22515E-07   974   0.702E-04
   3 F= -.11818385E+04 E0= -.11818284E+04  d E =-.669624E-03  mag=     2.5901
