       N       E                     dE             d eps       ncg     rms          rms(c)
DAV:   1     0.463590467725E+04    0.46359E+04   -0.17913E+05  1944   0.921E+02
DAV:   2    -0.107217675914E+03   -0.47431E+04   -0.43360E+04  2520   0.205E+02
DAV:   3    -0.120351561850E+04   -0.10963E+04   -0.10918E+04  2052   0.108E+02
DAV:   4    -0.124796988639E+04   -0.44454E+02   -0.44212E+02  1980   0.290E+01
DAV:   5    -0.124918009181E+04   -0.12102E+01   -0.12077E+01  2412   0.453E+00    0.703E+01
RMM:   6    -0.122877296909E+04    0.20407E+02   -0.22744E+01  1780   0.461E+00    0.552E+01
RMM:   7    -0.120733091291E+04    0.21442E+02   -0.18205E+01  1594   0.488E+00    0.403E+01
RMM:   8    -0.118174594995E+04    0.25585E+02   -0.43555E+01  1586   0.743E+00    0.251E+01
RMM:   9    -0.117839830820E+04    0.33476E+01   -0.33362E+01  1592   0.648E+00    0.116E+01
RMM:  10    -0.117907781651E+04   -0.67951E+00   -0.29070E+00  1658   0.212E+00    0.804E+00
RMM:  11    -0.117837526392E+04    0.70255E+00   -0.98540E-01  1648   0.104E+00    0.472E+00
RMM:  12    -0.117801665646E+04    0.35861E+00   -0.11023E+00  1642   0.112E+00    0.121E+00
RMM:  13    -0.117797748235E+04    0.39174E-01   -0.15538E-01  1730   0.469E-01    0.756E-01
RMM:  14    -0.117797365604E+04    0.38263E-02   -0.22683E-02  1846   0.176E-01    0.378E-01
RMM:  15    -0.117797323953E+04    0.41652E-03   -0.33036E-03  1858   0.699E-02    0.279E-01
RMM:  16    -0.117797299120E+04    0.24833E-03   -0.19842E-03  1646   0.488E-02    0.189E-01
RMM:  17    -0.117797320015E+04   -0.20896E-03   -0.12744E-03  1477   0.401E-02    0.103E-01
RMM:  18    -0.117797321883E+04   -0.18680E-04   -0.21333E-04  1118   0.202E-02
   1 F= -.11853101E+04 E0= -.11853101E+04  d E =-.118531E+04  mag=     0.9960
       N       E                     dE             d eps       ncg     rms          rms(c)
DAV:   1    -0.117797068189E+04    0.25183E-02   -0.39596E-01  1692   0.106E+00    0.217E-01
RMM:   2    -0.117797277522E+04   -0.20933E-02   -0.23759E-02  1845   0.202E-01    0.192E-01
RMM:   3    -0.117797264689E+04    0.12833E-03   -0.13828E-03  1553   0.524E-02    0.236E-01
RMM:   4    -0.117797273703E+04   -0.90139E-04   -0.17607E-04  1078   0.165E-02
   2 F= -.11853102E+04 E0= -.11853102E+04  d E =-.149027E-03  mag=     1.0010
       N       E                     dE             d eps       ncg     rms          rms(c)
DAV:   1    -0.117797324186E+04   -0.59498E-03   -0.92983E-02  1656   0.507E-01    0.899E-02
RMM:   2    -0.117797374666E+04   -0.50480E-03   -0.57737E-03  1789   0.110E-01    0.641E-02
RMM:   3    -0.117797367677E+04    0.69889E-04   -0.25566E-04  1132   0.256E-02
   3 F= -.11853109E+04 E0= -.11853109E+04  d E =-.805174E-03  mag=     1.0003
