       N       E                     dE             d eps       ncg     rms          rms(c)
DAV:   1     0.478944975407E+04    0.47894E+04   -0.17403E+05  1944   0.910E+02
DAV:   2     0.147647747211E+02   -0.47747E+04   -0.43368E+04  2592   0.207E+02
DAV:   3    -0.116922164810E+04   -0.11840E+04   -0.11753E+04  2196   0.113E+02
DAV:   4    -0.123512960628E+04   -0.65908E+02   -0.65520E+02  2268   0.348E+01
DAV:   5    -0.123756784354E+04   -0.24382E+01   -0.24323E+01  2484   0.619E+00    0.710E+01
RMM:   6    -0.121649957748E+04    0.21068E+02   -0.13969E+01  2116   0.687E+00    0.565E+01
RMM:   7    -0.120141467959E+04    0.15085E+02   -0.12982E+01  2049   0.829E+00    0.478E+01
RMM:   8    -0.117016339226E+04    0.31251E+02   -0.58499E+01  2059   0.113E+01    0.626E+01
RMM:   9    -0.117324171101E+04   -0.30783E+01   -0.12302E+01  2096   0.148E+01    0.285E+01
RMM:  10    -0.116726128984E+04    0.59804E+01   -0.83858E+00  2112   0.507E+00    0.243E+01
RMM:  11    -0.116906834141E+04   -0.18071E+01   -0.12094E+01  2018   0.557E+00    0.281E+01
RMM:  12    -0.116711178705E+04    0.19566E+01   -0.38279E+00  2038   0.972E+00    0.140E+01
RMM:  13    -0.116784623303E+04   -0.73445E+00   -0.13572E+00  2118   0.238E+00    0.115E+01
RMM:  14    -0.116739858591E+04    0.44765E+00   -0.63638E-01  2109   0.108E+00    0.109E+01
RMM:  15    -0.116651072288E+04    0.88786E+00   -0.45443E-01  2068   0.110E+00    0.105E+01
RMM:  16    -0.116626149623E+04    0.24923E+00   -0.29125E-01  2063   0.140E+00    0.112E+01
RMM:  17    -0.116631170928E+04   -0.50213E-01   -0.50652E-02  2099   0.410E-01    0.109E+01
RMM:  18    -0.116636663895E+04   -0.54930E-01   -0.33951E-02  2108   0.261E-01    0.114E+01
RMM:  19    -0.116637878755E+04   -0.12149E-01   -0.11943E-02  2033   0.198E-01    0.117E+01
RMM:  20    -0.116639133918E+04   -0.12552E-01   -0.83232E-03  1773   0.170E-01    0.119E+01
RMM:  21    -0.116639206694E+04   -0.72776E-03   -0.16586E-02  1881   0.211E-01    0.125E+01
RMM:  22    -0.116639089633E+04    0.11706E-02   -0.66752E-03  1624   0.167E-01    0.131E+01
RMM:  23    -0.116639041606E+04    0.48027E-03   -0.23580E-03  1384   0.157E-01    0.135E+01
RMM:  24    -0.116639119317E+04   -0.77711E-03   -0.35809E-03  1565   0.178E-01    0.142E+01
RMM:  25    -0.116639207048E+04   -0.87731E-03   -0.20936E-03  1443   0.170E-01    0.149E+01
RMM:  26    -0.116639171659E+04    0.35390E-03   -0.86527E-04  1368   0.146E-01    0.147E+01
RMM:  27    -0.116639202426E+04   -0.30768E-03   -0.58138E-04  1350   0.138E-01    0.148E+01
RMM:  28    -0.116639064539E+04    0.13789E-02   -0.48206E-04  1291   0.129E-01    0.141E+01
RMM:  29    -0.116639219139E+04   -0.15460E-02   -0.18312E-04  1202   0.127E-01    0.153E+01
RMM:  30    -0.116639203103E+04    0.16036E-03   -0.11750E-04  1195   0.131E-01    0.154E+01
RMM:  31    -0.116639213753E+04   -0.10650E-03   -0.11438E-04  1223   0.123E-01    0.156E+01
RMM:  32    -0.116639205529E+04    0.82244E-04   -0.12200E-04  1177   0.960E-02
   1 F= -.11735978E+04 E0= -.11735978E+04  d E =-.117360E+04  mag=    -0.9455
       N       E                     dE             d eps       ncg     rms          rms(c)
DAV:   1    -0.116639403378E+04   -0.18962E-02   -0.21503E+00  2268   0.299E+00    0.166E+01
RMM:   2    -0.116639668199E+04   -0.26482E-02   -0.10977E-01  2175   0.440E-01    0.147E+01
RMM:   3    -0.116637548290E+04    0.21199E-01   -0.99895E-02  1994   0.107E+00    0.572E+00
RMM:   4    -0.116637848715E+04   -0.30043E-02   -0.23268E-02  2057   0.318E-01    0.289E+00
RMM:   5    -0.116638088774E+04   -0.24006E-02   -0.76199E-03  2045   0.151E-01    0.304E-01
RMM:   6    -0.116638017810E+04    0.70964E-03   -0.97733E-04  1231   0.106E-01    0.253E-01
RMM:   7    -0.116637993219E+04    0.24591E-03   -0.97083E-04  1299   0.116E-01    0.225E-01
RMM:   8    -0.116638010268E+04   -0.17049E-03   -0.30015E-03  1721   0.172E-01    0.182E-01
RMM:   9    -0.116638041947E+04   -0.31679E-03   -0.58804E-04  1242   0.136E-01    0.139E-01
RMM:  10    -0.116638082779E+04   -0.40832E-03   -0.52005E-04  1298   0.967E-02    0.136E-01
RMM:  11    -0.116638090006E+04   -0.72275E-04   -0.97517E-05  1165   0.116E-01
   2 F= -.11735883E+04 E0= -.11735883E+04  d E =0.947618E-02  mag=    -1.0000
       N       E                     dE             d eps       ncg     rms          rms(c)
DAV:   1    -0.116639486413E+04   -0.14036E-01   -0.11309E+00  2340   0.216E+00    0.744E-01
RMM:   2    -0.116639782840E+04   -0.29643E-02   -0.51021E-02  2069   0.301E-01    0.104E+00
RMM:   3    -0.116639947436E+04   -0.16460E-02   -0.10677E-02  1434   0.794E-01    0.750E-01
RMM:   4    -0.116639840807E+04    0.10663E-02   -0.12217E-03  1309   0.131E-01    0.695E-01
RMM:   5    -0.116639639547E+04    0.20126E-02   -0.17113E-03  1566   0.159E-01    0.852E-01
RMM:   6    -0.116639590357E+04    0.49190E-03   -0.15917E-03  1576   0.167E-01    0.953E-01
RMM:   7    -0.116639646762E+04   -0.56405E-03   -0.78126E-04  1361   0.153E-01    0.112E+00
RMM:   8    -0.116639407679E+04    0.23908E-02   -0.33765E-03  1846   0.125E-01    0.370E-01
RMM:   9    -0.116639441848E+04   -0.34169E-03   -0.16481E-03  1666   0.130E-01    0.567E-01
RMM:  10    -0.116639681310E+04   -0.23946E-02   -0.25008E-03  1441   0.158E-01    0.385E-01
RMM:  11    -0.116639784488E+04   -0.10318E-02   -0.97065E-04  1310   0.143E-01    0.349E-01
RMM:  12    -0.116639856712E+04   -0.72224E-03   -0.47444E-04  1302   0.139E-01    0.334E-01
RMM:  13    -0.116639830512E+04    0.26200E-03   -0.16793E-04  1219   0.115E-01    0.337E-01
RMM:  14    -0.116639726765E+04    0.10375E-02   -0.20513E-04  1188   0.121E-01    0.405E-01
RMM:  15    -0.116639726283E+04    0.48200E-05   -0.51154E-05  1135   0.102E-01
   3 F= -.11736035E+04 E0= -.11736035E+04  d E =-.565854E-02  mag=    -1.0000
       N       E                     dE             d eps       ncg     rms          rms(c)
DAV:   1    -0.116892135400E+04   -0.25241E+01   -0.61138E-01  2088   0.198E+00    0.315E+00
RMM:   2    -0.116640793276E+04    0.25134E+01   -0.19615E-01  2241   0.544E-01    0.323E+00
RMM:   3    -0.116632309889E+04    0.84834E-01   -0.22813E-02  1926   0.529E-01    0.980E-01
RMM:   4    -0.116635245411E+04   -0.29355E-01   -0.20004E-02  1882   0.195E-01    0.673E-01
RMM:   5    -0.116637949897E+04   -0.27045E-01   -0.69507E-03  1704   0.171E-01    0.490E-01
RMM:   6    -0.116638646225E+04   -0.69633E-02   -0.32792E-03  1363   0.147E-01    0.437E-01
RMM:   7    -0.116639166241E+04   -0.52002E-02   -0.93920E-04  1309   0.160E-01    0.389E-01
RMM:   8    -0.116639585725E+04   -0.41948E-02   -0.19351E-03  1355   0.156E-01    0.352E-01
RMM:   9    -0.116639635446E+04   -0.49721E-03   -0.63657E-04  1324   0.165E-01    0.347E-01
RMM:  10    -0.116639643376E+04   -0.79305E-04   -0.53205E-04  1360   0.144E-01
   4 F= -.11736024E+04 E0= -.11736024E+04  d E =0.103954E-02  mag=    -0.9915
       N       E                     dE             d eps       ncg     rms          rms(c)
DAV:   1    -0.116639468327E+04    0.16712E-02   -0.11835E-02  1872   0.324E-01    0.382E-01
RMM:   2    -0.116639850611E+04   -0.38228E-02   -0.18011E-03  1395   0.506E-02    0.418E-01
RMM:   3    -0.116639861111E+04   -0.10501E-03   -0.88814E-05  1103   0.978E-02    0.320E-01
RMM:   4    -0.116640042302E+04   -0.18119E-02   -0.40694E-04  1165   0.135E-01    0.457E-01
RMM:   5    -0.116640140454E+04   -0.98152E-03   -0.45802E-04  1287   0.148E-01    0.345E-01
RMM:   6    -0.116640262821E+04   -0.12237E-02   -0.59056E-04  1292   0.130E-01    0.349E-01
RMM:   7    -0.116640320072E+04   -0.57251E-03   -0.35479E-04  1244   0.137E-01    0.361E-01
RMM:   8    -0.116640392240E+04   -0.72169E-03   -0.45210E-04  1287   0.136E-01    0.343E-01
RMM:   9    -0.116640534680E+04   -0.14244E-02   -0.10825E-03  1312   0.138E-01    0.331E-01
RMM:  10    -0.116640560073E+04   -0.25394E-03   -0.12204E-03  1280   0.138E-01    0.364E-01
RMM:  11    -0.116640677270E+04   -0.11720E-02   -0.14516E-03  1346   0.159E-01    0.299E-01
RMM:  12    -0.116640759913E+04   -0.82643E-03   -0.23995E-03  1414   0.175E-01    0.309E-01
RMM:  13    -0.116640776596E+04   -0.16683E-03   -0.99402E-04  1343   0.154E-01    0.281E-01
RMM:  14    -0.116640789264E+04   -0.12667E-03   -0.40625E-04  1293   0.127E-01    0.276E-01
RMM:  15    -0.116640797521E+04   -0.82578E-04   -0.16532E-04  1198   0.119E-01
   5 F= -.11736139E+04 E0= -.11736139E+04  d E =-.104737E-01  mag=    -0.9999
       N       E                     dE             d eps       ncg     rms          rms(c)
DAV:   1    -0.116640831843E+04   -0.42580E-03   -0.53732E-02  2016   0.618E-01    0.265E-01
RMM:   2    -0.116640881905E+04   -0.50061E-03   -0.55235E-03  1874   0.724E-02    0.295E-01
RMM:   3    -0.116640895612E+04   -0.13707E-03   -0.16472E-03  1127   0.118E-01    0.238E-01
RMM:   4    -0.116640899142E+04   -0.35305E-04   -0.84574E-05  1077   0.611E-02
   6 F= -.11736148E+04 E0= -.11736148E+04  d E =-.903621E-03  mag=    -1.0000
       N       E                     dE             d eps       ncg     rms          rms(c)
DAV:   1    -0.116739975110E+04   -0.99079E+00   -0.48493E-01  2160   0.177E+00    0.196E+00
RMM:   2    -0.116636868833E+04    0.10311E+01   -0.12068E-01  2241   0.393E-01    0.126E+00
RMM:   3    -0.116636170638E+04    0.69819E-02   -0.94282E-03  1737   0.417E-01    0.625E-01
RMM:   4    -0.116638211604E+04   -0.20410E-01   -0.12902E-02  1816   0.174E-01    0.398E-01
RMM:   5    -0.116639904148E+04   -0.16925E-01   -0.41811E-03  1600   0.168E-01    0.292E-01
RMM:   6    -0.116640538284E+04   -0.63414E-02   -0.25975E-03  1376   0.147E-01    0.226E-01
RMM:   7    -0.116640736282E+04   -0.19800E-02   -0.79444E-04  1305   0.172E-01    0.182E-01
RMM:   8    -0.116640858571E+04   -0.12229E-02   -0.11841E-03  1357   0.159E-01    0.138E-01
RMM:   9    -0.116640896322E+04   -0.37751E-03   -0.75748E-04  1360   0.172E-01    0.107E-01
RMM:  10    -0.116640922009E+04   -0.25687E-03   -0.72186E-04  1387   0.145E-01    0.110E-01
RMM:  11    -0.116640954399E+04   -0.32391E-03   -0.42857E-04  1298   0.121E-01    0.718E-02
RMM:  12    -0.116640982804E+04   -0.28404E-03   -0.14120E-04  1214   0.114E-01    0.986E-02
RMM:  13    -0.116640999182E+04   -0.16379E-03   -0.77305E-05  1162   0.107E-01    0.660E-02
RMM:  14    -0.116641028600E+04   -0.29418E-03   -0.52711E-05  1152   0.113E-01    0.696E-02
RMM:  15    -0.116641050703E+04   -0.22103E-03   -0.51170E-05  1148   0.118E-01    0.630E-02
RMM:  16    -0.116641065132E+04   -0.14429E-03   -0.71733E-05  1172   0.117E-01    0.427E-02
RMM:  17    -0.116641070735E+04   -0.56038E-04   -0.39235E-05  1146   0.111E-01
   7 F= -.11736162E+04 E0= -.11736162E+04  d E =-.228655E-02  mag=    -0.9996
       N       E                     dE             d eps       ncg     rms          rms(c)
DAV:   1    -0.116641229591E+04   -0.16446E-02   -0.43577E-02  2124   0.452E-01    0.866E-02
RMM:   2    -0.116641248710E+04   -0.19119E-03   -0.20122E-03  1882   0.591E-02    0.101E-01
RMM:   3    -0.116641249809E+04   -0.10986E-04   -0.28280E-04  1178   0.148E-01
   8 F= -.11736180E+04 E0= -.11736180E+04  d E =-.181493E-02  mag=    -0.9999
       N       E                     dE             d eps       ncg     rms          rms(c)
DAV:   1    -0.116641334375E+04   -0.85665E-03   -0.32648E-01  2268   0.117E+00    0.338E-01
RMM:   2    -0.116641434618E+04   -0.10024E-02   -0.12773E-02  2063   0.150E-01    0.468E-01
RMM:   3    -0.116641460912E+04   -0.26294E-03   -0.18784E-03  1295   0.365E-01    0.355E-01
RMM:   4    -0.116641466469E+04   -0.55576E-04   -0.24700E-04  1144   0.900E-02
   9 F= -.11736203E+04 E0= -.11736203E+04  d E =-.404946E-02  mag=    -0.9999
       N       E                     dE             d eps       ncg     rms          rms(c)
DAV:   1    -0.116641657284E+04   -0.19637E-02   -0.75055E-02  2304   0.571E-01    0.522E-01
RMM:   2    -0.116641631699E+04    0.25585E-03   -0.35617E-03  2003   0.685E-02    0.554E-01
RMM:   3    -0.116641665740E+04   -0.34041E-03   -0.39595E-04  1165   0.139E-01    0.528E-01
RMM:   4    -0.116641677221E+04   -0.11481E-03   -0.72109E-05  1079   0.738E-02    0.525E-01
RMM:   5    -0.116641739014E+04   -0.61793E-03   -0.73312E-05  1074   0.101E-01    0.738E-01
RMM:   6    -0.116641515514E+04    0.22350E-02   -0.62235E-03  2037   0.187E-01    0.367E-01
RMM:   7    -0.116641521690E+04   -0.61761E-04   -0.61248E-04  1305   0.672E-02
  10 F= -.11736208E+04 E0= -.11736208E+04  d E =-.495794E-03  mag=    -1.0000
       N       E                     dE             d eps       ncg     rms          rms(c)
DAV:   1    -0.116641563991E+04   -0.48477E-03   -0.52753E-02  2088   0.500E-01    0.136E-01
RMM:   2    -0.116641573156E+04   -0.91650E-04   -0.19168E-03  1871   0.638E-02    0.141E-01
RMM:   3    -0.116641580094E+04   -0.69382E-04   -0.11647E-03  1187   0.165E-01    0.114E-01
RMM:   4    -0.116641572169E+04    0.79257E-04   -0.34479E-05  1059   0.605E-02
  11 F= -.11736212E+04 E0= -.11736212E+04  d E =-.953124E-03  mag=    -1.0000
