       N       E                     dE             d eps       ncg     rms          rms(c)
DAV:   1     0.475202376789E+04    0.47520E+04   -0.17953E+05  1908   0.923E+02
DAV:   2    -0.867417649615E+02   -0.48388E+04   -0.44326E+04  2520   0.211E+02
DAV:   3    -0.119777437269E+04   -0.11110E+04   -0.11029E+04  2088   0.110E+02
DAV:   4    -0.124376428542E+04   -0.45990E+02   -0.45746E+02  2052   0.290E+01
DAV:   5    -0.124495310795E+04   -0.11888E+01   -0.11863E+01  2412   0.443E+00    0.986E+01
RMM:   6    -0.124313975399E+04    0.18134E+01   -0.20015E+02  1886   0.195E+01    0.100E+02
RMM:   7    -0.121843913408E+04    0.24701E+02   -0.10170E+01  1592   0.514E+00    0.746E+01
RMM:   8    -0.120001454792E+04    0.18425E+02   -0.36186E+01  1589   0.724E+00    0.432E+01
RMM:   9    -0.118542122215E+04    0.14593E+02   -0.33867E+00  1595   0.237E+00    0.337E+01
RMM:  10    -0.117466547769E+04    0.10756E+02   -0.80268E+00  1584   0.352E+00    0.269E+01
RMM:  11    -0.116438624576E+04    0.10279E+02   -0.24284E+01  1587   0.562E+00    0.185E+01
RMM:  12    -0.116338359636E+04    0.10026E+01   -0.24642E+00  1600   0.206E+00    0.141E+01
RMM:  13    -0.116375674776E+04   -0.37315E+00   -0.41485E+00  1587   0.239E+00    0.117E+01
RMM:  14    -0.116400589482E+04   -0.24915E+00   -0.29234E-01  1632   0.821E-01    0.100E+01
RMM:  15    -0.116383792784E+04    0.16797E+00   -0.12693E+00  1589   0.878E-01    0.455E+00
RMM:  16    -0.116359095833E+04    0.24697E+00   -0.55144E-01  1598   0.676E-01    0.351E+00
RMM:  17    -0.116375304495E+04   -0.16209E+00   -0.14026E-01  1584   0.433E-01    0.700E+00
RMM:  18    -0.116366976834E+04    0.83277E-01   -0.10546E-01  1610   0.278E-01    0.502E+00
RMM:  19    -0.116356913218E+04    0.10064E+00   -0.11886E-01  1590   0.319E-01    0.213E+00
RMM:  20    -0.116358844315E+04   -0.19311E-01   -0.76015E-03  1679   0.116E-01    0.212E+00
RMM:  21    -0.116360802831E+04   -0.19585E-01   -0.35113E-02  1588   0.218E-01    0.167E+00
RMM:  22    -0.116361086439E+04   -0.28361E-02   -0.51808E-03  1616   0.808E-02    0.147E+00
RMM:  23    -0.116361169677E+04   -0.83238E-03   -0.19582E-02  1584   0.162E-01    0.915E-01
RMM:  24    -0.116360980066E+04    0.18961E-02   -0.54015E-03  1606   0.734E-02    0.633E-01
RMM:  25    -0.116361000218E+04   -0.20152E-03   -0.15859E-03  1508   0.494E-02    0.634E-01
RMM:  26    -0.116361202402E+04   -0.20218E-02   -0.94517E-04  1193   0.339E-02    0.629E-01
RMM:  27    -0.116361150377E+04    0.52026E-03   -0.24254E-04  1050   0.197E-02    0.589E-01
RMM:  28    -0.116361166777E+04   -0.16400E-03   -0.11149E-04  1023   0.114E-02    0.572E-01
RMM:  29    -0.116361267651E+04   -0.10087E-02   -0.11800E-03  1136   0.321E-02    0.451E-01
RMM:  30    -0.116361257107E+04    0.10545E-03   -0.10628E-03  1131   0.249E-02    0.267E-01
RMM:  31    -0.116361269510E+04   -0.12403E-03   -0.13662E-03  1191   0.315E-02    0.729E-02
RMM:  32    -0.116361273225E+04   -0.37155E-04   -0.24804E-04  1062   0.174E-02
   1 F= -.11706712E+04 E0= -.11706712E+04  d E =-.117067E+04  mag=     1.9979
       N       E                     dE             d eps       ncg     rms          rms(c)
DAV:   1    -0.116360941389E+04    0.32812E-02   -0.67969E-01  1728   0.156E+00    0.271E-01
RMM:   2    -0.116361252266E+04   -0.31088E-02   -0.33882E-02  1781   0.270E-01    0.218E-01
RMM:   3    -0.116361238247E+04    0.14019E-03   -0.14353E-03  1540   0.615E-02    0.197E-01
RMM:   4    -0.116361213264E+04    0.24983E-03   -0.87789E-04  1551   0.362E-02    0.123E-01
RMM:   5    -0.116361203563E+04    0.97009E-04   -0.30395E-04  1153   0.228E-02
   2 F= -.11706708E+04 E0= -.11706708E+04  d E =0.455595E-03  mag=     1.9999
       N       E                     dE             d eps       ncg     rms          rms(c)
DAV:   1    -0.116361294752E+04   -0.81488E-03   -0.19693E-01  1692   0.832E-01    0.139E-01
RMM:   2    -0.116361379120E+04   -0.84369E-03   -0.91813E-03  1751   0.142E-01    0.108E-01
RMM:   3    -0.116361369827E+04    0.92937E-04   -0.30664E-04  1098   0.296E-02
   3 F= -.11706723E+04 E0= -.11706723E+04  d E =-.107890E-02  mag=     1.9999
       N       E                     dE             d eps       ncg     rms          rms(c)
DAV:   1    -0.116361116774E+04    0.26235E-02   -0.35332E-01  1656   0.142E+00    0.222E-01
RMM:   2    -0.116361337472E+04   -0.22070E-02   -0.24755E-02  1747   0.220E-01    0.162E-01
RMM:   3    -0.116361300558E+04    0.36914E-03   -0.87259E-04  1332   0.454E-02    0.138E-01
RMM:   4    -0.116361272123E+04    0.28435E-03   -0.66080E-04  1532   0.318E-02    0.842E-02
RMM:   5    -0.116361261132E+04    0.10991E-03   -0.34777E-04  1268   0.242E-02    0.515E-02
RMM:   6    -0.116361261112E+04    0.20465E-06   -0.87563E-05   997   0.151E-02
   4 F= -.11706712E+04 E0= -.11706712E+04  d E =0.108173E-02  mag=     1.9999
       N       E                     dE             d eps       ncg     rms          rms(c)
DAV:   1    -0.116361336357E+04   -0.75225E-03   -0.15272E-01  1728   0.929E-01    0.135E-01
RMM:   2    -0.116361433032E+04   -0.96675E-03   -0.10701E-02  1749   0.147E-01    0.924E-02
RMM:   3    -0.116361420393E+04    0.12639E-03   -0.35772E-04  1128   0.300E-02    0.787E-02
RMM:   4    -0.116361413600E+04    0.67927E-04   -0.19291E-04   994   0.195E-02
   5 F= -.11706728E+04 E0= -.11706728E+04  d E =-.439303E-03  mag=     1.9999
