       N       E                     dE             d eps       ncg     rms          rms(c)
DAV:   1     0.490905103697E+04    0.49091E+04   -0.18407E+05  1908   0.945E+02
DAV:   2    -0.568619883695E+02   -0.49659E+04   -0.45664E+04  2592   0.215E+02
DAV:   3    -0.120539851361E+04   -0.11485E+04   -0.11415E+04  2052   0.112E+02
DAV:   4    -0.125393575022E+04   -0.48537E+02   -0.48180E+02  2016   0.301E+01
DAV:   5    -0.125515968370E+04   -0.12239E+01   -0.12197E+01  2376   0.451E+00    0.102E+02
RMM:   6    -0.125564706863E+04   -0.48738E+00   -0.20850E+02  1872   0.184E+01    0.987E+01
RMM:   7    -0.123539068621E+04    0.20256E+02   -0.99897E+00  1609   0.504E+00    0.724E+01
RMM:   8    -0.120099950972E+04    0.34391E+02   -0.34582E+01  1589   0.813E+00    0.403E+01
RMM:   9    -0.119096961823E+04    0.10030E+02   -0.24520E+01  1598   0.600E+00    0.685E+01
RMM:  10    -0.117778988599E+04    0.13180E+02   -0.30774E+01  1609   0.820E+00    0.234E+01
RMM:  11    -0.117725435821E+04    0.53553E+00   -0.18550E+01  1611   0.519E+00    0.293E+01
RMM:  12    -0.117647668300E+04    0.77768E+00   -0.17185E+00  1638   0.179E+00    0.256E+01
RMM:  13    -0.117422082501E+04    0.22559E+01   -0.26106E+00  1655   0.208E+00    0.107E+01
RMM:  14    -0.117505510924E+04   -0.83428E+00   -0.17802E+00  1617   0.170E+00    0.913E+00
RMM:  15    -0.117441944515E+04    0.63566E+00   -0.24709E-01  1672   0.698E-01    0.643E+00
RMM:  16    -0.117551003399E+04   -0.10906E+01   -0.17273E+00  1621   0.140E+00    0.172E+01
RMM:  17    -0.117407586220E+04    0.14342E+01   -0.11828E+00  1617   0.150E+00    0.553E+00
RMM:  18    -0.117414298187E+04   -0.67120E-01   -0.98159E-02  1668   0.371E-01    0.587E+00
RMM:  19    -0.117424635542E+04   -0.10337E+00   -0.23026E-01  1631   0.548E-01    0.123E+01
RMM:  20    -0.117406040193E+04    0.18595E+00   -0.12529E-01  1643   0.396E-01    0.797E+00
RMM:  21    -0.117407574232E+04   -0.15340E-01   -0.99634E-03  1604   0.192E-01    0.799E+00
RMM:  22    -0.117407136344E+04    0.43789E-02   -0.98595E-04  1293   0.588E-02    0.816E+00
RMM:  23    -0.117406473139E+04    0.66321E-02   -0.12509E-03  1238   0.337E-02    0.757E+00
RMM:  24    -0.117405844502E+04    0.62864E-02   -0.10270E-03  1257   0.769E-02    0.757E+00
RMM:  25    -0.117405080711E+04    0.76379E-02   -0.31115E-03  1450   0.667E-02    0.756E+00
RMM:  26    -0.117407411203E+04   -0.23305E-01   -0.53320E-03  1591   0.948E-02    0.727E+00
RMM:  27    -0.117411738259E+04   -0.43271E-01   -0.19203E-02  1626   0.175E-01    0.594E+00
RMM:  28    -0.117413373634E+04   -0.16354E-01   -0.36176E-03  1465   0.797E-02    0.542E+00
RMM:  29    -0.117414350140E+04   -0.97651E-02   -0.56748E-03  1526   0.749E-02    0.486E+00
RMM:  30    -0.117415066335E+04   -0.71620E-02   -0.27035E-03  1348   0.694E-02    0.451E+00
RMM:  31    -0.117417909238E+04   -0.28429E-01   -0.35624E-03  1466   0.870E-02    0.376E+00
RMM:  32    -0.117419816262E+04   -0.19070E-01   -0.21936E-03  1364   0.691E-02    0.323E+00
RMM:  33    -0.117420204817E+04   -0.38856E-02   -0.53906E-04  1138   0.313E-02    0.308E+00
RMM:  34    -0.117420716961E+04   -0.51214E-02   -0.28582E-04  1093   0.278E-02    0.291E+00
RMM:  35    -0.117422379547E+04   -0.16626E-01   -0.79107E-03  1548   0.139E-01    0.200E+00
RMM:  36    -0.117422390961E+04   -0.11414E-03   -0.10603E-03  1208   0.377E-02    0.193E+00
RMM:  37    -0.117422477371E+04   -0.86410E-03   -0.77137E-04  1248   0.430E-02    0.181E+00
RMM:  38    -0.117422355953E+04    0.12142E-02   -0.68057E-04  1186   0.392E-02    0.176E+00
RMM:  39    -0.117422247319E+04    0.10863E-02   -0.21491E-04  1062   0.192E-02    0.173E+00
RMM:  40    -0.117422110404E+04    0.13692E-02   -0.10337E-04  1029   0.146E-02    0.169E+00
RMM:  41    -0.117421890120E+04    0.22028E-02   -0.20742E-04  1062   0.171E-02    0.159E+00
RMM:  42    -0.117421497128E+04    0.39299E-02   -0.76511E-04  1245   0.328E-02    0.151E+00
RMM:  43    -0.117421345877E+04    0.15125E-02   -0.29771E-04  1087   0.197E-02    0.145E+00
RMM:  44    -0.117421323446E+04    0.22431E-03   -0.51049E-05   977   0.116E-02    0.143E+00
RMM:  45    -0.117421306091E+04    0.17355E-03   -0.18046E-05   880   0.759E-03    0.142E+00
RMM:  46    -0.117421307780E+04   -0.16888E-04   -0.64922E-06   759   0.530E-03
   1 F= -.11813325E+04 E0= -.11813186E+04  d E =-.118133E+04  mag=     0.9333
       N       E                     dE             d eps       ncg     rms          rms(c)
DAV:   1    -0.117420764201E+04    0.54189E-02   -0.13214E+00  1656   0.192E+00    0.146E+00
RMM:   2    -0.117419946737E+04    0.81746E-02   -0.76689E-02  1683   0.346E-01    0.100E+00
RMM:   3    -0.117419664715E+04    0.28202E-02   -0.11170E-02  1687   0.126E-01    0.880E-01
RMM:   4    -0.117419743318E+04   -0.78603E-03   -0.19608E-03  1552   0.491E-02    0.105E+00
RMM:   5    -0.117419298311E+04    0.44501E-02   -0.48323E-04  1165   0.366E-02    0.816E-01
RMM:   6    -0.117419087245E+04    0.21107E-02   -0.50735E-03  1584   0.884E-02    0.426E-01
RMM:   7    -0.117419282423E+04   -0.19518E-02   -0.25102E-03  1593   0.616E-02    0.200E-01
RMM:   8    -0.117419314523E+04   -0.32100E-03   -0.25026E-04  1084   0.239E-02    0.146E-01
RMM:   9    -0.117419321027E+04   -0.65041E-04   -0.88815E-05  1005   0.150E-02
   2 F= -.11813130E+04 E0= -.11812990E+04  d E =0.195012E-01  mag=     0.8974
       N       E                     dE             d eps       ncg     rms          rms(c)
DAV:   1    -0.117420326226E+04   -0.10117E-01   -0.67817E-01  1656   0.137E+00    0.440E-01
RMM:   2    -0.117420410693E+04   -0.84466E-03   -0.28307E-02  1707   0.228E-01    0.411E-01
RMM:   3    -0.117420406737E+04    0.39555E-04   -0.11855E-03  1338   0.490E-02    0.593E-01
RMM:   4    -0.117420144530E+04    0.26221E-02   -0.60360E-04  1132   0.336E-02    0.270E-01
RMM:   5    -0.117420251450E+04   -0.10692E-02   -0.94455E-04  1554   0.392E-02    0.197E-01
RMM:   6    -0.117420215816E+04    0.35633E-03   -0.15085E-03  1580   0.444E-02    0.113E-01
RMM:   7    -0.117420208927E+04    0.68891E-04   -0.64977E-04  1461   0.309E-02
   3 F= -.11813216E+04 E0= -.11813076E+04  d E =0.108875E-01  mag=     0.9020
       N       E                     dE             d eps       ncg     rms          rms(c)
DAV:   1    -0.117420113763E+04    0.10205E-02   -0.45267E-01  1764   0.135E+00    0.392E-01
RMM:   2    -0.117420228934E+04   -0.11517E-02   -0.26219E-02  1748   0.214E-01    0.321E-01
RMM:   3    -0.117420226104E+04    0.28300E-04   -0.10552E-03  1283   0.456E-02    0.495E-01
RMM:   4    -0.117420036942E+04    0.18916E-02   -0.40523E-04  1080   0.285E-02    0.223E-01
RMM:   5    -0.117420100822E+04   -0.63880E-03   -0.63831E-04  1367   0.314E-02    0.151E-01
RMM:   6    -0.117420085308E+04    0.15514E-03   -0.10487E-03  1580   0.382E-02    0.918E-02
RMM:   7    -0.117420074816E+04    0.10491E-03   -0.38030E-04  1220   0.252E-02    0.462E-02
RMM:   8    -0.117420081180E+04   -0.63633E-04   -0.87736E-05  1000   0.148E-02
   4 F= -.11813207E+04 E0= -.11813067E+04  d E =0.906500E-03  mag=     0.9034
       N       E                     dE             d eps       ncg     rms          rms(c)
DAV:   1    -0.117420302677E+04   -0.22786E-02   -0.16281E-01  1764   0.810E-01    0.224E-01
RMM:   2    -0.117420334393E+04   -0.31716E-03   -0.92991E-03  1746   0.128E-01    0.177E-01
RMM:   3    -0.117420325379E+04    0.90133E-04   -0.35645E-04  1082   0.281E-02
   5 F= -.11813229E+04 E0= -.11813088E+04  d E =-.131228E-02  mag=     0.9082
       N       E                     dE             d eps       ncg     rms          rms(c)
DAV:   1    -0.117419969713E+04    0.36468E-02   -0.35402E-01  1728   0.184E+00    0.451E-01
RMM:   2    -0.117420470114E+04   -0.50040E-02   -0.65037E-02  1784   0.274E-01    0.394E-01
RMM:   3    -0.117420379588E+04    0.90526E-03   -0.24223E-03  1329   0.578E-02    0.571E-01
RMM:   4    -0.117420189417E+04    0.19017E-02   -0.55375E-04  1103   0.294E-02    0.301E-01
RMM:   5    -0.117420163254E+04    0.26163E-03   -0.10602E-03  1580   0.391E-02    0.204E-01
RMM:   6    -0.117420075799E+04    0.87454E-03   -0.29755E-03  1585   0.631E-02    0.103E-01
RMM:   7    -0.117420069317E+04    0.64820E-04   -0.48597E-04  1337   0.283E-02
   6 F= -.11813204E+04 E0= -.11813064E+04  d E =0.249873E-02  mag=     0.9013
       N       E                     dE             d eps       ncg     rms          rms(c)
DAV:   1    -0.117420147152E+04   -0.71353E-03   -0.12183E-01  1728   0.107E+00    0.214E-01
RMM:   2    -0.117420327728E+04   -0.18058E-02   -0.22621E-02  1781   0.161E-01    0.161E-01
RMM:   3    -0.117420302447E+04    0.25281E-03   -0.80200E-04  1109   0.338E-02    0.242E-01
RMM:   4    -0.117420257015E+04    0.45432E-03   -0.16498E-04  1015   0.165E-02    0.124E-01
RMM:   5    -0.117420271043E+04   -0.14028E-03   -0.86563E-05   989   0.137E-02    0.919E-02
RMM:   6    -0.117420255437E+04    0.15606E-03   -0.62087E-04  1501   0.291E-02    0.421E-02
RMM:   7    -0.117420254523E+04    0.91434E-05   -0.89028E-05   978   0.131E-02
   7 F= -.11813222E+04 E0= -.11813082E+04  d E =0.684124E-03  mag=     0.9034
