       N       E                     dE             d eps       ncg     rms          rms(c)
DAV:   1     0.503472673512E+04    0.50347E+04   -0.17694E+05  1872   0.930E+02
DAV:   2    -0.263627271196E+02   -0.50611E+04   -0.46411E+04  2592   0.210E+02
DAV:   3    -0.120131334722E+04   -0.11750E+04   -0.11704E+04  2088   0.112E+02
DAV:   4    -0.124917926188E+04   -0.47866E+02   -0.47579E+02  2016   0.295E+01
DAV:   5    -0.125036428273E+04   -0.11850E+01   -0.11821E+01  2412   0.416E+00    0.827E+01
RMM:   6    -0.123756734127E+04    0.12797E+02   -0.72261E+00  1584   0.315E+00    0.728E+01
RMM:   7    -0.119128240674E+04    0.46285E+02   -0.84895E+01  1584   0.106E+01    0.516E+01
RMM:   8    -0.118766518261E+04    0.36172E+01   -0.69043E+01  1585   0.942E+00    0.232E+01
RMM:   9    -0.118801834381E+04   -0.35316E+00   -0.42510E+00  1606   0.250E+00    0.119E+01
RMM:  10    -0.118667816983E+04    0.13402E+01   -0.11005E+00  1584   0.117E+00    0.769E+00
RMM:  11    -0.118560521516E+04    0.10730E+01   -0.28896E+00  1584   0.189E+00    0.316E+00
RMM:  12    -0.118542467674E+04    0.18054E+00   -0.59720E-01  1584   0.862E-01    0.133E+00
RMM:  13    -0.118540062525E+04    0.24051E-01   -0.20386E-01  1592   0.487E-01    0.149E+00
RMM:  14    -0.118539826202E+04    0.23632E-02   -0.12631E-02  1637   0.140E-01    0.116E+00
RMM:  15    -0.118539613965E+04    0.21224E-02   -0.16064E-02  1584   0.125E-01    0.563E-01
RMM:  16    -0.118539597106E+04    0.16858E-03   -0.93457E-03  1584   0.105E-01    0.250E-01
RMM:  17    -0.118539574077E+04    0.23030E-03   -0.31901E-04  1151   0.230E-02    0.153E-01
RMM:  18    -0.118539544352E+04    0.29725E-03   -0.70700E-04  1347   0.269E-02    0.696E-02
RMM:  19    -0.118539544627E+04   -0.27499E-05   -0.10033E-04  1056   0.128E-02
   1 F= -.11928327E+04 E0= -.11928203E+04  d E =-.119283E+04  mag=     0.4204
       N       E                     dE             d eps       ncg     rms          rms(c)
DAV:   1    -0.118539384463E+04    0.15989E-02   -0.49713E-01  1728   0.113E+00    0.462E-01
RMM:   2    -0.118539485275E+04   -0.10081E-02   -0.14017E-02  1584   0.165E-01    0.481E-01
RMM:   3    -0.118539488884E+04   -0.36087E-04   -0.83296E-04  1437   0.364E-02
   2 F= -.11928328E+04 E0= -.11928205E+04  d E =-.124665E-03  mag=     0.4110
       N       E                     dE             d eps       ncg     rms          rms(c)
DAV:   1    -0.118539543837E+04   -0.58562E-03   -0.10357E-01  1764   0.512E-01    0.124E-01
RMM:   2    -0.118539580944E+04   -0.37108E-03   -0.31531E-03  1584   0.816E-02    0.670E-02
RMM:   3    -0.118539581269E+04   -0.32447E-05   -0.13030E-04  1038   0.164E-02
   3 F= -.11928334E+04 E0= -.11928210E+04  d E =-.751108E-03  mag=     0.4081
