       N       E                     dE             d eps       ncg     rms          rms(c)
DAV:   1     0.473949344604E+04    0.47395E+04   -0.17803E+05  1908   0.921E+02
DAV:   2    -0.110701390437E+03   -0.48502E+04   -0.44522E+04  2556   0.207E+02
DAV:   3    -0.119883228139E+04   -0.10881E+04   -0.10828E+04  2088   0.107E+02
DAV:   4    -0.124213275163E+04   -0.43300E+02   -0.43065E+02  2016   0.281E+01
DAV:   5    -0.124324685575E+04   -0.11141E+01   -0.11107E+01  2232   0.422E+00    0.676E+01
RMM:   6    -0.122943476023E+04    0.13812E+02   -0.38168E+01  1588   0.595E+00    0.573E+01
RMM:   7    -0.121390951222E+04    0.15525E+02   -0.69154E+00  1584   0.291E+00    0.438E+01
RMM:   8    -0.119167067633E+04    0.22239E+02   -0.21555E+01  1584   0.537E+00    0.307E+01
RMM:   9    -0.117563235120E+04    0.16038E+02   -0.25906E+01  1584   0.582E+00    0.208E+01
RMM:  10    -0.117487365639E+04    0.75869E+00   -0.22918E+01  1584   0.542E+00    0.106E+01
RMM:  11    -0.117469235954E+04    0.18130E+00   -0.14958E+00  1618   0.154E+00    0.705E+00
RMM:  12    -0.117445161870E+04    0.24074E+00   -0.14946E-01  1584   0.437E-01    0.544E+00
RMM:  13    -0.117401888083E+04    0.43274E+00   -0.16496E+00  1584   0.143E+00    0.148E+00
RMM:  14    -0.117396051497E+04    0.58366E-01   -0.95198E-02  1594   0.363E-01    0.853E-01
RMM:  15    -0.117395431407E+04    0.62009E-02   -0.22222E-02  1599   0.154E-01    0.413E-01
RMM:  16    -0.117395483823E+04   -0.52416E-03   -0.50952E-03  1586   0.878E-02    0.268E-01
RMM:  17    -0.117395403777E+04    0.80047E-03   -0.22422E-03  1582   0.539E-02    0.155E-01
RMM:  18    -0.117395409370E+04   -0.55937E-04   -0.94274E-04  1436   0.363E-02
   1 F= -.11811535E+04 E0= -.11811535E+04  d E =-.118115E+04  mag=     1.0040
       N       E                     dE             d eps       ncg     rms          rms(c)
DAV:   1    -0.117394900212E+04    0.50356E-02   -0.20223E+00  1620   0.234E+00    0.526E-01
RMM:   2    -0.117395695606E+04   -0.79539E-02   -0.95784E-02  1591   0.399E-01    0.504E-01
RMM:   3    -0.117395463767E+04    0.23184E-02   -0.37457E-03  1844   0.765E-02    0.468E-01
RMM:   4    -0.117395295311E+04    0.16846E-02   -0.43875E-03  1584   0.731E-02    0.232E-01
RMM:   5    -0.117395294538E+04    0.77242E-05   -0.18880E-03  1584   0.495E-02    0.106E-01
RMM:   6    -0.117395288196E+04    0.63422E-04   -0.12650E-04  1058   0.146E-02
   2 F= -.11811529E+04 E0= -.11811529E+04  d E =0.547486E-03  mag=     1.0002
       N       E                     dE             d eps       ncg     rms          rms(c)
DAV:   1    -0.117395606903E+04   -0.31236E-02   -0.56522E-01  1656   0.123E+00    0.279E-01
RMM:   2    -0.117395802789E+04   -0.19589E-02   -0.24769E-02  1588   0.202E-01    0.273E-01
RMM:   3    -0.117395731382E+04    0.71408E-03   -0.84407E-04  1370   0.375E-02    0.254E-01
RMM:   4    -0.117395665621E+04    0.65760E-03   -0.16863E-03  1584   0.458E-02    0.116E-01
RMM:   5    -0.117395665564E+04    0.57090E-06   -0.54631E-04  1450   0.270E-02
   3 F= -.11811563E+04 E0= -.11811563E+04  d E =-.286673E-02  mag=     1.0000
       N       E                     dE             d eps       ncg     rms          rms(c)
DAV:   1    -0.117395580964E+04    0.84657E-03   -0.92942E-01  1656   0.150E+00    0.319E-01
RMM:   2    -0.117395821311E+04   -0.24035E-02   -0.29519E-02  1590   0.224E-01    0.286E-01
RMM:   3    -0.117395724509E+04    0.96802E-03   -0.10785E-03  1435   0.435E-02    0.240E-01
RMM:   4    -0.117395659670E+04    0.64839E-03   -0.33299E-03  1584   0.634E-02    0.786E-02
RMM:   5    -0.117395659570E+04    0.10023E-05   -0.11982E-04  1063   0.152E-02
   4 F= -.11811565E+04 E0= -.11811565E+04  d E =-.127840E-03  mag=     1.0000
       N       E                     dE             d eps       ncg     rms          rms(c)
DAV:   1    -0.117395771109E+04   -0.11144E-02   -0.22580E-01  1728   0.740E-01    0.150E-01
RMM:   2    -0.117395824025E+04   -0.52916E-03   -0.69956E-03  1590   0.108E-01    0.135E-01
RMM:   3    -0.117395797902E+04    0.26123E-03   -0.24050E-04  1101   0.214E-02    0.115E-01
RMM:   4    -0.117395778513E+04    0.19389E-03   -0.10723E-03  1574   0.364E-02    0.361E-02
RMM:   5    -0.117395778729E+04   -0.21628E-05   -0.32280E-05   994   0.844E-03
   5 F= -.11811576E+04 E0= -.11811576E+04  d E =-.122693E-02  mag=     1.0000
       N       E                     dE             d eps       ncg     rms          rms(c)
DAV:   1    -0.117395749982E+04    0.28530E-03   -0.40851E-01  1728   0.946E-01    0.167E-01
RMM:   2    -0.117395821004E+04   -0.71022E-03   -0.87808E-03  1587   0.126E-01    0.147E-01
RMM:   3    -0.117395799618E+04    0.21386E-03   -0.28399E-04  1182   0.241E-02    0.127E-01
RMM:   4    -0.117395788555E+04    0.11063E-03   -0.97340E-04  1519   0.343E-02    0.460E-02
RMM:   5    -0.117395787805E+04    0.74996E-05   -0.39939E-05  1010   0.924E-03
   6 F= -.11811580E+04 E0= -.11811580E+04  d E =-.430537E-03  mag=     1.0000
       N       E                     dE             d eps       ncg     rms          rms(c)
DAV:   1    -0.117395817549E+04   -0.28994E-03   -0.53754E-02  1728   0.342E-01    0.631E-02
RMM:   2    -0.117395825171E+04   -0.76220E-04   -0.11372E-03  1399   0.446E-02    0.559E-02
RMM:   3    -0.117395821040E+04    0.41307E-04   -0.44617E-05   961   0.107E-02
   7 F= -.11811582E+04 E0= -.11811582E+04  d E =-.639763E-03  mag=     1.0000
