       N       E                     dE             d eps       ncg     rms          rms(c)
DAV:   1     0.495682137285E+04    0.49568E+04   -0.16952E+05  1692   0.989E+02
DAV:   2     0.174533056235E+02   -0.49394E+04   -0.45386E+04  2268   0.220E+02
DAV:   3    -0.117327828767E+04   -0.11907E+04   -0.11847E+04  1872   0.120E+02
DAV:   4    -0.122458808491E+04   -0.51310E+02   -0.50986E+02  1872   0.330E+01
DAV:   5    -0.122584090366E+04   -0.12528E+01   -0.12487E+01  2016   0.484E+00    0.644E+01
RMM:   6    -0.120952228898E+04    0.16319E+02   -0.22205E+01  1440   0.489E+00    0.506E+01
RMM:   7    -0.119064767548E+04    0.18875E+02   -0.13715E+01  1440   0.462E+00    0.386E+01
RMM:   8    -0.116358708496E+04    0.27061E+02   -0.43724E+01  1440   0.819E+00    0.237E+01
RMM:   9    -0.116089701842E+04    0.26901E+01   -0.39598E+01  1440   0.773E+00    0.908E+00
RMM:  10    -0.116094096463E+04   -0.43946E-01   -0.13963E+00  1481   0.167E+00    0.764E+00
RMM:  11    -0.116014764949E+04    0.79332E+00   -0.29314E+00  1440   0.194E+00    0.270E+00
RMM:  12    -0.115996503166E+04    0.18262E+00   -0.22794E-01  1446   0.501E-01    0.146E+00
RMM:  13    -0.115991656630E+04    0.48465E-01   -0.16519E-01  1440   0.493E-01    0.513E-01
RMM:  14    -0.115991662292E+04   -0.56615E-04   -0.18107E-02  1458   0.173E-01    0.241E-01
RMM:  15    -0.115991629376E+04    0.32916E-03   -0.61069E-03  1443   0.960E-02    0.220E-01
RMM:  16    -0.115991662778E+04   -0.33402E-03   -0.10061E-03  1382   0.419E-02    0.193E-01
RMM:  17    -0.115991646158E+04    0.16620E-03   -0.11651E-03  1412   0.409E-02    0.821E-02
RMM:  18    -0.115991639288E+04    0.68699E-04   -0.19079E-04   926   0.182E-02
   1 F= -.11671359E+04 E0= -.11671359E+04  d E =-.116714E+04  mag=    -0.0047
       N       E                     dE             d eps       ncg     rms          rms(c)
DAV:   1    -0.115991523785E+04    0.12237E-02   -0.19670E+00  1620   0.223E+00    0.649E-01
RMM:   2    -0.115991741521E+04   -0.21774E-02   -0.41372E-02  1440   0.303E-01    0.588E-01
RMM:   3    -0.115991553497E+04    0.18802E-02   -0.32065E-03  1482   0.727E-02    0.496E-01
RMM:   4    -0.115991285372E+04    0.26813E-02   -0.15682E-02  1440   0.149E-01    0.132E-01
RMM:   5    -0.115991272400E+04    0.12971E-03   -0.39291E-04  1112   0.301E-02    0.970E-02
RMM:   6    -0.115991258576E+04    0.13824E-03   -0.11011E-03  1385   0.363E-02    0.447E-02
RMM:   7    -0.115991259699E+04   -0.11227E-04   -0.16599E-04   901   0.161E-02
   2 F= -.11671326E+04 E0= -.11671326E+04  d E =0.332164E-02  mag=     0.0002
       N       E                     dE             d eps       ncg     rms          rms(c)
DAV:   1    -0.115992017038E+04   -0.75846E-02   -0.67903E-01  1584   0.131E+00    0.369E-01
RMM:   2    -0.115992068079E+04   -0.51042E-03   -0.11636E-02  1440   0.170E-01    0.336E-01
RMM:   3    -0.115992002453E+04    0.65627E-03   -0.88514E-04  1334   0.393E-02    0.279E-01
RMM:   4    -0.115991925127E+04    0.77326E-03   -0.47616E-03  1440   0.825E-02    0.755E-02
RMM:   5    -0.115991918525E+04    0.66011E-04   -0.10876E-04   921   0.166E-02
   3 F= -.11671389E+04 E0= -.11671389E+04  d E =-.298523E-02  mag=     0.0001
       N       E                     dE             d eps       ncg     rms          rms(c)
DAV:   1    -0.115992124677E+04   -0.19955E-02   -0.52112E-01  1440   0.122E+00    0.283E-01
RMM:   2    -0.115992153164E+04   -0.28486E-03   -0.10058E-02  1440   0.166E-01    0.240E-01
RMM:   3    -0.115992064373E+04    0.88791E-03   -0.87213E-04  1448   0.408E-02    0.181E-01
RMM:   4    -0.115991988748E+04    0.75625E-03   -0.40666E-03  1440   0.735E-02    0.611E-02
RMM:   5    -0.115991982551E+04    0.61968E-04   -0.95047E-05   918   0.151E-02
   4 F= -.11671389E+04 E0= -.11671389E+04  d E =-.715088E-04  mag=     0.0000
       N       E                     dE             d eps       ncg     rms          rms(c)
DAV:   1    -0.115992084493E+04   -0.95745E-03   -0.12064E-01  1584   0.589E-01    0.123E-01
RMM:   2    -0.115992086434E+04   -0.19415E-04   -0.20369E-03  1440   0.741E-02    0.110E-01
RMM:   3    -0.115992064778E+04    0.21657E-03   -0.17818E-04   908   0.197E-02    0.841E-02
RMM:   4    -0.115992046158E+04    0.18620E-03   -0.11216E-03  1440   0.396E-02    0.277E-02
RMM:   5    -0.115992045234E+04    0.92372E-05   -0.19419E-05   859   0.771E-03
   5 F= -.11671398E+04 E0= -.11671398E+04  d E =-.971913E-03  mag=     0.0000
