       N       E                     dE             d eps       ncg     rms          rms(c)
DAV:   1     0.502455015051E+04    0.50246E+04   -0.17232E+05  1800   0.920E+02
DAV:   2    -0.533043518044E+02   -0.50779E+04   -0.46639E+04  2628   0.212E+02
DAV:   3    -0.119872597258E+04   -0.11454E+04   -0.11402E+04  2052   0.111E+02
DAV:   4    -0.124534640107E+04   -0.46620E+02   -0.46357E+02  1944   0.296E+01
DAV:   5    -0.124664535784E+04   -0.12990E+01   -0.12962E+01  2412   0.464E+00    0.668E+01
RMM:   6    -0.122833907843E+04    0.18306E+02   -0.27239E+01  1584   0.490E+00    0.539E+01
RMM:   7    -0.121233828634E+04    0.16001E+02   -0.90901E+00  1584   0.342E+00    0.416E+01
RMM:   8    -0.118693441677E+04    0.25404E+02   -0.30719E+01  1584   0.637E+00    0.270E+01
RMM:   9    -0.117667416412E+04    0.10260E+02   -0.19845E+01  1584   0.511E+00    0.190E+01
RMM:  10    -0.117746154855E+04   -0.78738E+00   -0.15547E+01  1584   0.447E+00    0.903E+00
RMM:  11    -0.117735555083E+04    0.10600E+00   -0.80871E-01  1620   0.114E+00    0.676E+00
RMM:  12    -0.117678086075E+04    0.57469E+00   -0.75815E-01  1584   0.948E-01    0.403E+00
RMM:  13    -0.117660364836E+04    0.17721E+00   -0.57281E-01  1584   0.860E-01    0.132E+00
RMM:  14    -0.117660437999E+04   -0.73164E-03   -0.99533E-02  1591   0.355E-01    0.107E+00
RMM:  15    -0.117661064592E+04   -0.62659E-02   -0.20942E-02  1623   0.177E-01    0.463E-01
RMM:  16    -0.117661172786E+04   -0.10819E-02   -0.40102E-03  1585   0.732E-02    0.247E-01
RMM:  17    -0.117661180274E+04   -0.74872E-04   -0.45775E-03  1585   0.754E-02    0.195E-01
RMM:  18    -0.117661211381E+04   -0.31107E-03   -0.50429E-04  1270   0.278E-02    0.747E-02
RMM:  19    -0.117661215785E+04   -0.44041E-04   -0.92666E-05  1050   0.138E-02
   1 F= -.11840122E+04 E0= -.11840121E+04  d E =-.118401E+04  mag=     0.9991
       N       E                     dE             d eps       ncg     rms          rms(c)
DAV:   1    -0.117661017244E+04    0.19414E-02   -0.83847E-01  1620   0.135E+00    0.326E-01
RMM:   2    -0.117661172596E+04   -0.15535E-02   -0.20286E-02  1584   0.193E-01    0.281E-01
RMM:   3    -0.117661136188E+04    0.36408E-03   -0.11821E-03  1605   0.428E-02    0.226E-01
RMM:   4    -0.117661097790E+04    0.38398E-03   -0.22653E-03  1584   0.539E-02    0.904E-02
RMM:   5    -0.117661099865E+04   -0.20750E-04   -0.12171E-04  1044   0.151E-02
   2 F= -.11840115E+04 E0= -.11840114E+04  d E =0.669242E-03  mag=     0.9971
       N       E                     dE             d eps       ncg     rms          rms(c)
DAV:   1    -0.117661331790E+04   -0.23400E-02   -0.26595E-01  1728   0.763E-01    0.175E-01
RMM:   2    -0.117661369476E+04   -0.37686E-03   -0.57232E-03  1584   0.105E-01    0.151E-01
RMM:   3    -0.117661351829E+04    0.17647E-03   -0.32277E-04  1175   0.237E-02    0.119E-01
RMM:   4    -0.117661335971E+04    0.15858E-03   -0.10253E-03  1566   0.362E-02    0.474E-02
RMM:   5    -0.117661336171E+04   -0.19940E-05   -0.35196E-05   998   0.896E-03
   3 F= -.11840136E+04 E0= -.11840135E+04  d E =-.141691E-02  mag=     0.9974
       N       E                     dE             d eps       ncg     rms          rms(c)
DAV:   1    -0.117661463616E+04   -0.12764E-02   -0.47494E-01  1656   0.927E-01    0.229E-01
RMM:   2    -0.117661515483E+04   -0.51867E-03   -0.88415E-03  1584   0.118E-01    0.185E-01
RMM:   3    -0.117661491874E+04    0.23609E-03   -0.43168E-04  1219   0.263E-02    0.140E-01
RMM:   4    -0.117661481151E+04    0.10723E-03   -0.93355E-04  1552   0.343E-02    0.558E-02
RMM:   5    -0.117661483341E+04   -0.21899E-04   -0.57431E-05  1005   0.102E-02
   4 F= -.11840154E+04 E0= -.11840152E+04  d E =-.174932E-02  mag=     0.9968
       N       E                     dE             d eps       ncg     rms          rms(c)
DAV:   1    -0.117661481799E+04   -0.64758E-05   -0.21810E-02  1764   0.199E-01    0.566E-02
RMM:   2    -0.117661483046E+04   -0.12471E-04   -0.40584E-04  1125   0.263E-02
   5 F= -.11840154E+04 E0= -.11840152E+04  d E =-.180649E-02  mag=     0.9968
       N       E                     dE             d eps       ncg     rms          rms(c)
DAV:   1    -0.117661590224E+04   -0.10842E-02   -0.36626E-01  1728   0.808E-01    0.185E-01
RMM:   2    -0.117661623498E+04   -0.33274E-03   -0.70374E-03  1584   0.102E-01    0.149E-01
RMM:   3    -0.117661608618E+04    0.14881E-03   -0.24937E-04  1124   0.210E-02    0.119E-01
RMM:   4    -0.117661612918E+04   -0.43000E-04   -0.84041E-04  1548   0.324E-02
   6 F= -.11840170E+04 E0= -.11840168E+04  d E =-.158041E-02  mag=     0.9966
       N       E                     dE             d eps       ncg     rms          rms(c)
DAV:   1    -0.117661578066E+04    0.30551E-03   -0.74240E-01  1728   0.115E+00    0.241E-01
RMM:   2    -0.117661662683E+04   -0.84617E-03   -0.14192E-02  1584   0.145E-01    0.192E-01
RMM:   3    -0.117661642074E+04    0.20609E-03   -0.46120E-04  1222   0.282E-02    0.158E-01
RMM:   4    -0.117661648119E+04   -0.60447E-04   -0.12656E-03  1572   0.403E-02    0.542E-02
RMM:   5    -0.117661651244E+04   -0.31254E-04   -0.64351E-05  1020   0.110E-02
   7 F= -.11840178E+04 E0= -.11840176E+04  d E =-.236893E-02  mag=     0.9964
       N       E                     dE             d eps       ncg     rms          rms(c)
DAV:   1    -0.117661696625E+04   -0.48506E-03   -0.13123E-01  1728   0.471E-01    0.907E-02
RMM:   2    -0.117661710253E+04   -0.13629E-03   -0.24131E-03  1528   0.584E-02    0.699E-02
RMM:   3    -0.117661709781E+04    0.47210E-05   -0.68562E-05   999   0.118E-02
   8 F= -.11840186E+04 E0= -.11840184E+04  d E =-.847747E-03  mag=     0.9964
       N       E                     dE             d eps       ncg     rms          rms(c)
DAV:   1    -0.117661675287E+04    0.34967E-03   -0.11712E+00  1728   0.141E+00    0.268E-01
RMM:   2    -0.117661824364E+04   -0.14908E-02   -0.20893E-02  1584   0.168E-01    0.206E-01
RMM:   3    -0.117661811315E+04    0.13049E-03   -0.62223E-04  1271   0.324E-02    0.170E-01
RMM:   4    -0.117661845217E+04   -0.33902E-03   -0.15683E-03  1543   0.451E-02    0.404E-02
RMM:   5    -0.117661841649E+04    0.35682E-04   -0.30695E-05  1020   0.868E-03
   9 F= -.11840207E+04 E0= -.11840205E+04  d E =-.295705E-02  mag=     0.9962
       N       E                     dE             d eps       ncg     rms          rms(c)
DAV:   1    -0.117661956237E+04   -0.11102E-02   -0.42165E-02  1764   0.297E-01    0.662E-02
RMM:   2    -0.117661956299E+04   -0.61766E-06   -0.88742E-04  1385   0.411E-02
  10 F= -.11840220E+04 E0= -.11840218E+04  d E =-.123809E-02  mag=     0.9962
       N       E                     dE             d eps       ncg     rms          rms(c)
DAV:   1    -0.117662171454E+04   -0.21522E-02   -0.37409E-01  1728   0.886E-01    0.228E-01
RMM:   2    -0.117662170842E+04    0.61273E-05   -0.77945E-03  1584   0.120E-01    0.195E-01
RMM:   3    -0.117662110870E+04    0.59971E-03   -0.53694E-04  1389   0.291E-02    0.154E-01
RMM:   4    -0.117662068054E+04    0.42816E-03   -0.22753E-03  1584   0.519E-02    0.626E-02
RMM:   5    -0.117662069002E+04   -0.94814E-05   -0.15598E-04  1064   0.163E-02
  11 F= -.11840234E+04 E0= -.11840232E+04  d E =-.264660E-02  mag=     0.9960
       N       E                     dE             d eps       ncg     rms          rms(c)
DAV:   1    -0.117662153345E+04   -0.85291E-03   -0.62580E-02  1728   0.341E-01    0.889E-02
RMM:   2    -0.117662155377E+04   -0.20327E-04   -0.12508E-03  1441   0.453E-02    0.724E-02
RMM:   3    -0.117662152079E+04    0.32988E-04   -0.53312E-05   983   0.106E-02
  12 F= -.11840242E+04 E0= -.11840240E+04  d E =-.833202E-03  mag=     0.9960
       N       E                     dE             d eps       ncg     rms          rms(c)
DAV:   1    -0.117662262770E+04   -0.10739E-02   -0.55668E-01  1656   0.101E+00    0.248E-01
RMM:   2    -0.117662292857E+04   -0.30088E-03   -0.10586E-02  1584   0.127E-01    0.206E-01
RMM:   3    -0.117662252062E+04    0.40796E-03   -0.48466E-04  1258   0.277E-02    0.169E-01
RMM:   4    -0.117662230144E+04    0.21917E-03   -0.21934E-03  1584   0.525E-02    0.499E-02
RMM:   5    -0.117662232377E+04   -0.22325E-04   -0.80433E-05  1027   0.124E-02
  13 F= -.11840250E+04 E0= -.11840248E+04  d E =-.165264E-02  mag=     0.9960
       N       E                     dE             d eps       ncg     rms          rms(c)
DAV:   1    -0.117662339193E+04   -0.10905E-02   -0.48913E-02  1800   0.360E-01    0.751E-02
RMM:   2    -0.117662341334E+04   -0.21412E-04   -0.11532E-03  1582   0.516E-02    0.685E-02
RMM:   3    -0.117662333947E+04    0.73868E-04   -0.57759E-05   966   0.112E-02
  14 F= -.11840261E+04 E0= -.11840259E+04  d E =-.106588E-02  mag=     0.9960
       N       E                     dE             d eps       ncg     rms          rms(c)
DAV:   1    -0.117662324894E+04    0.16440E-03   -0.16722E-02  1728   0.212E-01    0.544E-02
RMM:   2    -0.117662324968E+04   -0.74299E-06   -0.28935E-04  1165   0.265E-02
  15 F= -.11840261E+04 E0= -.11840258E+04  d E =-.100855E-02  mag=     0.9961
       N       E                     dE             d eps       ncg     rms          rms(c)
DAV:   1    -0.117662397933E+04   -0.73040E-03   -0.41691E-02  1728   0.309E-01    0.107E-01
RMM:   2    -0.117662388339E+04    0.95940E-04   -0.81933E-04  1458   0.414E-02
  16 F= -.11840268E+04 E0= -.11840266E+04  d E =-.722474E-03  mag=     0.9961
       N       E                     dE             d eps       ncg     rms          rms(c)
DAV:   1    -0.117662554451E+04   -0.15652E-02   -0.37433E-01  1584   0.926E-01    0.297E-01
RMM:   2    -0.117662488747E+04    0.65704E-03   -0.72168E-03  1584   0.122E-01    0.256E-01
RMM:   3    -0.117662319249E+04    0.16950E-02   -0.12779E-03  1584   0.422E-02    0.185E-01
RMM:   4    -0.117662216542E+04    0.10271E-02   -0.36421E-03  1584   0.658E-02    0.765E-02
RMM:   5    -0.117662217735E+04   -0.11928E-04   -0.36255E-04  1280   0.228E-02
  17 F= -.11840254E+04 E0= -.11840251E+04  d E =0.703507E-03  mag=     0.9962
       N       E                     dE             d eps       ncg     rms          rms(c)
DAV:   1    -0.117662428055E+04   -0.21151E-02   -0.12233E-01  1728   0.528E-01    0.132E-01
RMM:   2    -0.117662414670E+04    0.13385E-03   -0.20980E-03  1584   0.648E-02    0.111E-01
RMM:   3    -0.117662377725E+04    0.36944E-03   -0.21720E-04  1064   0.190E-02    0.830E-02
RMM:   4    -0.117662347294E+04    0.30431E-03   -0.89619E-04  1583   0.331E-02    0.316E-02
RMM:   5    -0.117662347146E+04    0.14787E-05   -0.86129E-05   999   0.117E-02
  18 F= -.11840265E+04 E0= -.11840263E+04  d E =-.428100E-03  mag=     0.9961
