       N       E                     dE             d eps       ncg     rms          rms(c)
DAV:   1     0.482026609287E+04    0.48203E+04   -0.17289E+05  1872   0.909E+02
DAV:   2    -0.820169328914E+02   -0.49023E+04   -0.44845E+04  2556   0.204E+02
DAV:   3    -0.119601959029E+04   -0.11140E+04   -0.11097E+04  2088   0.108E+02
DAV:   4    -0.124107869034E+04   -0.45059E+02   -0.44838E+02  2052   0.285E+01
DAV:   5    -0.124224837352E+04   -0.11697E+01   -0.11674E+01  2340   0.424E+00    0.659E+01
RMM:   6    -0.122856545264E+04    0.13683E+02   -0.83981E+00  1586   0.314E+00    0.538E+01
RMM:   7    -0.118638055887E+04    0.42185E+02   -0.77174E+01  1588   0.953E+00    0.299E+01
RMM:   8    -0.117763062755E+04    0.87499E+01   -0.27800E+01  1586   0.591E+00    0.178E+01
RMM:   9    -0.117789071642E+04   -0.26009E+00   -0.17039E+01  1584   0.467E+00    0.114E+01
RMM:  10    -0.117676580429E+04    0.11249E+01   -0.36263E+00  1633   0.152E+00    0.606E+00
RMM:  11    -0.117651529198E+04    0.25051E+00   -0.10764E+00  1589   0.991E-01    0.628E+00
RMM:  12    -0.117608492138E+04    0.43037E+00   -0.66080E-01  1586   0.569E-01    0.232E+00
RMM:  13    -0.117609348720E+04   -0.85658E-02   -0.56205E-01  1584   0.686E-01    0.204E+00
RMM:  14    -0.117599529527E+04    0.98192E-01   -0.16250E-01  1590   0.338E-01    0.550E-01
RMM:  15    -0.117599902839E+04   -0.37331E-02   -0.11563E-02  1641   0.105E-01    0.496E-01
RMM:  16    -0.117599872000E+04    0.30839E-03   -0.17088E-03  1499   0.408E-02    0.464E-01
RMM:  17    -0.117599362976E+04    0.50902E-02   -0.47430E-03  1483   0.478E-02    0.258E-01
RMM:  18    -0.117599407693E+04   -0.44717E-03   -0.87666E-04  1348   0.318E-02    0.256E-01
RMM:  19    -0.117599310610E+04    0.97083E-03   -0.88109E-04  1246   0.277E-02    0.155E-01
RMM:  20    -0.117599291588E+04    0.19022E-03   -0.94983E-04  1413   0.341E-02    0.862E-02
RMM:  21    -0.117599299867E+04   -0.82790E-04   -0.67278E-04  1347   0.290E-02
   1 F= -.11832992E+04 E0= -.11832918E+04  d E =-.118330E+04  mag=    -0.7521
       N       E                     dE             d eps       ncg     rms          rms(c)
DAV:   1    -0.117599194281E+04    0.97307E-03   -0.37522E-01  1656   0.948E-01    0.219E-01
RMM:   2    -0.117599286863E+04   -0.92582E-03   -0.11309E-02  1586   0.140E-01    0.205E-01
RMM:   3    -0.117599260274E+04    0.26589E-03   -0.64449E-04  1398   0.323E-02    0.182E-01
RMM:   4    -0.117599234980E+04    0.25294E-03   -0.31243E-03  1586   0.602E-02    0.732E-02
RMM:   5    -0.117599229285E+04    0.56945E-04   -0.76164E-05  1050   0.123E-02
   2 F= -.11832987E+04 E0= -.11832922E+04  d E =0.441813E-03  mag=    -0.7864
       N       E                     dE             d eps       ncg     rms          rms(c)
DAV:   1    -0.117599374708E+04   -0.13973E-02   -0.10404E-01  1764   0.499E-01    0.112E-01
RMM:   2    -0.117599389239E+04   -0.14531E-03   -0.24549E-03  1591   0.680E-02    0.102E-01
RMM:   3    -0.117599376953E+04    0.12285E-03   -0.13690E-04  1051   0.164E-02    0.846E-02
RMM:   4    -0.117599368775E+04    0.81787E-04   -0.84077E-04  1552   0.322E-02
   3 F= -.11833000E+04 E0= -.11832937E+04  d E =-.812002E-03  mag=    -0.7938
