       N       E                     dE             d eps       ncg     rms          rms(c)
DAV:   1     0.481386820602E+04    0.48139E+04   -0.17277E+05  1872   0.906E+02
DAV:   2    -0.833470917141E+02   -0.48972E+04   -0.44545E+04  2520   0.205E+02
DAV:   3    -0.118886126401E+04   -0.11055E+04   -0.11003E+04  2160   0.107E+02
DAV:   4    -0.123232271459E+04   -0.43461E+02   -0.43271E+02  2016   0.280E+01
DAV:   5    -0.123343939762E+04   -0.11167E+01   -0.11143E+01  2304   0.419E+00    0.646E+01
RMM:   6    -0.121775863229E+04    0.15681E+02   -0.22069E+01  1584   0.456E+00    0.497E+01
RMM:   7    -0.120110150153E+04    0.16657E+02   -0.10395E+01  1584   0.368E+00    0.394E+01
RMM:   8    -0.117371954145E+04    0.27382E+02   -0.36151E+01  1584   0.685E+00    0.250E+01
RMM:   9    -0.116642334499E+04    0.72962E+01   -0.17771E+01  1584   0.480E+00    0.166E+01
RMM:  10    -0.116766353227E+04   -0.12402E+01   -0.13093E+01  1584   0.409E+00    0.812E+00
RMM:  11    -0.116752705366E+04    0.13648E+00   -0.17539E+00  1598   0.131E+00    0.486E+00
RMM:  12    -0.116690824865E+04    0.61881E+00   -0.63471E-01  1584   0.895E-01    0.226E+00
RMM:  13    -0.116664777891E+04    0.26047E+00   -0.31498E-01  1586   0.494E-01    0.934E-01
RMM:  14    -0.116663723049E+04    0.10548E-01   -0.60880E-02  1599   0.266E-01    0.397E-01
RMM:  15    -0.116663687739E+04    0.35310E-03   -0.87882E-03  1614   0.111E-01    0.201E-01
RMM:  16    -0.116663594993E+04    0.92746E-03   -0.27416E-03  1590   0.491E-02    0.132E-01
RMM:  17    -0.116663610853E+04   -0.15860E-03   -0.75235E-04  1420   0.321E-02    0.740E-02
RMM:  18    -0.116663612722E+04   -0.18688E-04   -0.13330E-04  1087   0.146E-02
   1 F= -.11737634E+04 E0= -.11737634E+04  d E =-.117376E+04  mag=    -0.0007
       N       E                     dE             d eps       ncg     rms          rms(c)
DAV:   1    -0.116663062474E+04    0.54838E-02   -0.14353E+00  1800   0.216E+00    0.425E-01
RMM:   2    -0.116664042919E+04   -0.98045E-02   -0.10714E-01  1584   0.371E-01    0.398E-01
RMM:   3    -0.116663784182E+04    0.25874E-02   -0.36848E-03  1679   0.702E-02    0.360E-01
RMM:   4    -0.116663680175E+04    0.10401E-02   -0.26424E-03  1584   0.574E-02    0.169E-01
RMM:   5    -0.116663688056E+04   -0.78808E-04   -0.12539E-03  1584   0.402E-02    0.730E-02
RMM:   6    -0.116663675783E+04    0.12273E-03   -0.19435E-04  1100   0.150E-02    0.430E-02
RMM:   7    -0.116663676305E+04   -0.52150E-05   -0.97174E-05  1020   0.123E-02
   2 F= -.11737636E+04 E0= -.11737636E+04  d E =-.182436E-03  mag=    -0.0000
       N       E                     dE             d eps       ncg     rms          rms(c)
DAV:   1    -0.116663732983E+04   -0.57199E-03   -0.36751E-01  1584   0.110E+00    0.217E-01
RMM:   2    -0.116663981227E+04   -0.24824E-02   -0.27448E-02  1586   0.186E-01    0.203E-01
RMM:   3    -0.116663906919E+04    0.74308E-03   -0.90901E-04  1266   0.343E-02    0.182E-01
RMM:   4    -0.116663877812E+04    0.29107E-03   -0.74575E-04  1546   0.314E-02    0.800E-02
RMM:   5    -0.116663879274E+04   -0.14620E-04   -0.26107E-04  1136   0.198E-02
   3 F= -.11737658E+04 E0= -.11737658E+04  d E =-.244000E-02  mag=    -0.0000
       N       E                     dE             d eps       ncg     rms          rms(c)
DAV:   1    -0.116663708915E+04    0.16890E-02   -0.86264E-01  1764   0.171E+00    0.312E-01
RMM:   2    -0.116664163529E+04   -0.45461E-02   -0.53384E-02  1588   0.273E-01    0.276E-01
RMM:   3    -0.116663994501E+04    0.16903E-02   -0.19418E-03  1481   0.525E-02    0.235E-01
RMM:   4    -0.116663902036E+04    0.92465E-03   -0.32996E-03  1584   0.624E-02    0.889E-02
RMM:   5    -0.116663903492E+04   -0.14561E-04   -0.37493E-04  1230   0.236E-02
   4 F= -.11737658E+04 E0= -.11737658E+04  d E =0.812401E-05  mag=    -0.0000
       N       E                     dE             d eps       ncg     rms          rms(c)
DAV:   1    -0.116663979870E+04   -0.77833E-03   -0.22174E-01  1872   0.865E-01    0.149E-01
RMM:   2    -0.116664086508E+04   -0.10664E-02   -0.13219E-02  1586   0.135E-01    0.133E-01
RMM:   3    -0.116664039574E+04    0.46934E-03   -0.46174E-04  1153   0.265E-02    0.112E-01
RMM:   4    -0.116664009738E+04    0.29836E-03   -0.11247E-03  1574   0.368E-02    0.406E-02
RMM:   5    -0.116664009842E+04   -0.10383E-05   -0.80510E-05  1013   0.119E-02
   5 F= -.11737670E+04 E0= -.11737670E+04  d E =-.118323E-02  mag=    -0.0000
       N       E                     dE             d eps       ncg     rms          rms(c)
DAV:   1    -0.116664042110E+04   -0.32372E-03   -0.28983E-01  1728   0.937E-01    0.128E-01
RMM:   2    -0.116664120387E+04   -0.78277E-03   -0.10118E-02  1592   0.135E-01    0.118E-01
RMM:   3    -0.116664088623E+04    0.31764E-03   -0.39964E-04  1217   0.275E-02    0.105E-01
RMM:   4    -0.116664066390E+04    0.22234E-03   -0.13859E-03  1568   0.402E-02    0.360E-02
RMM:   5    -0.116664064006E+04    0.23834E-04   -0.31175E-05  1018   0.851E-03
   6 F= -.11737677E+04 E0= -.11737677E+04  d E =-.721868E-03  mag=    -0.0000
       N       E                     dE             d eps       ncg     rms          rms(c)
DAV:   1    -0.116664075999E+04   -0.96099E-04   -0.17088E-02  1728   0.228E-01    0.287E-02
RMM:   2    -0.116664080579E+04   -0.45791E-04   -0.53636E-04  1226   0.315E-02
   7 F= -.11737678E+04 E0= -.11737678E+04  d E =-.843709E-03  mag=    -0.0000
