       N       E                     dE             d eps       ncg     rms          rms(c)
DAV:   1     0.483218244185E+04    0.48322E+04   -0.17584E+05  1856   0.944E+02
DAV:   2    -0.398022847378E+02   -0.48720E+04   -0.44347E+04  2400   0.211E+02
DAV:   3    -0.119376388898E+04   -0.11540E+04   -0.11494E+04  2080   0.112E+02
DAV:   4    -0.124087519952E+04   -0.47111E+02   -0.46845E+02  1920   0.297E+01
DAV:   5    -0.124206666900E+04   -0.11915E+01   -0.11881E+01  2240   0.438E+00    0.733E+01
RMM:   6    -0.122797424264E+04    0.14092E+02   -0.84169E+00  1568   0.350E+00    0.586E+01
RMM:   7    -0.118979511227E+04    0.38179E+02   -0.94429E+01  1650   0.112E+01    0.308E+01
RMM:   8    -0.118371383376E+04    0.60813E+01   -0.12445E+01  1575   0.519E+00    0.258E+01
RMM:   9    -0.117838829421E+04    0.53255E+01   -0.32440E+01  1603   0.703E+00    0.156E+01
RMM:  10    -0.117890962365E+04   -0.52133E+00   -0.10443E+01  1561   0.442E+00    0.968E+00
RMM:  11    -0.117809501197E+04    0.81461E+00   -0.17525E+00  1580   0.182E+00    0.685E+00
RMM:  12    -0.117756271726E+04    0.53229E+00   -0.78780E-01  1574   0.119E+00    0.318E+00
RMM:  13    -0.117729981071E+04    0.26291E+00   -0.82173E-01  1540   0.114E+00    0.156E+00
RMM:  14    -0.117726556982E+04    0.34241E-01   -0.12343E-01  1551   0.522E-01    0.103E+00
RMM:  15    -0.117726211136E+04    0.34585E-02   -0.55976E-02  1606   0.302E-01    0.100E+00
RMM:  16    -0.117726687273E+04   -0.47614E-02   -0.19486E-02  1672   0.171E-01    0.176E+00
RMM:  17    -0.117726135609E+04    0.55166E-02   -0.17327E-02  1604   0.151E-01    0.222E+00
RMM:  18    -0.117726179238E+04   -0.43629E-03   -0.78041E-03  1841   0.924E-02    0.264E+00
RMM:  19    -0.117726230940E+04   -0.51702E-03   -0.33219E-03  2165   0.441E-02    0.316E+00
RMM:  20    -0.117726224173E+04    0.67669E-04   -0.21547E-03  1594   0.370E-02    0.314E+00
RMM:  21    -0.117726232637E+04   -0.84638E-04   -0.15094E-03  1807   0.171E-02    0.332E+00
RMM:  22    -0.117726207606E+04    0.25031E-03   -0.16260E-03  1651   0.294E-02    0.315E+00
RMM:  23    -0.117726213459E+04   -0.58526E-04   -0.10895E-03  1783   0.158E-02    0.316E+00
RMM:  24    -0.117726222202E+04   -0.87434E-04   -0.82720E-04  1893   0.801E-03    0.323E+00
RMM:  25    -0.117726223369E+04   -0.11675E-04   -0.63689E-04  1601   0.951E-03    0.299E+00
RMM:  26    -0.117726219935E+04    0.34349E-04   -0.54596E-04  1612   0.972E-03    0.276E+00
RMM:  27    -0.117726220692E+04   -0.75790E-05   -0.41180E-04  1627   0.631E-03    0.267E+00
RMM:  28    -0.117726222783E+04   -0.20901E-04   -0.34559E-04  1296   0.319E-03    0.268E+00
RMM:  29    -0.117726225929E+04   -0.31463E-04   -0.28497E-04  1107   0.174E-03    0.274E+00
RMM:  30    -0.117726231444E+04   -0.55147E-04   -0.26409E-04  1655   0.401E-03    0.277E+00
RMM:  31    -0.117726234158E+04   -0.27147E-04   -0.22312E-04  1067   0.175E-03    0.283E+00
RMM:  32    -0.117726235894E+04   -0.17360E-04   -0.20096E-04  1050   0.123E-03    0.287E+00
RMM:  33    -0.117726236586E+04   -0.69170E-05   -0.16957E-04  1050   0.132E-03    0.286E+00
RMM:  34    -0.117726236910E+04   -0.32370E-05   -0.15120E-04  1111   0.205E-03    0.280E+00
RMM:  35    -0.117726232347E+04    0.45623E-04   -0.12408E-04  1309   0.318E-03    0.254E+00
RMM:  36    -0.117726227019E+04    0.53282E-04   -0.10945E-04  1259   0.294E-03    0.231E+00
RMM:  37    -0.117726222465E+04    0.45540E-04   -0.89896E-05  1284   0.285E-03    0.213E+00
RMM:  38    -0.117726216025E+04    0.64398E-04   -0.82221E-05  1612   0.416E-03    0.191E+00
RMM:  39    -0.117726208020E+04    0.80053E-04   -0.80632E-05  2008   0.624E-03    0.163E+00
RMM:  40    -0.117726199877E+04    0.81427E-04   -0.78644E-05  2193   0.740E-03    0.127E+00
RMM:  41    -0.117726194122E+04    0.57553E-04   -0.58046E-05  2060   0.638E-03    0.945E-01
RMM:  42    -0.117726191074E+04    0.30477E-04   -0.37715E-05  1756   0.469E-03    0.718E-01
RMM:  43    -0.117726189969E+04    0.11055E-04   -0.22205E-05  1384   0.299E-03    0.593E-01
RMM:  44    -0.117726189143E+04    0.82586E-05   -0.16447E-05  1378   0.295E-03    0.451E-01
RMM:  45    -0.117726188514E+04    0.62849E-05   -0.13693E-05  1437   0.312E-03    0.300E-01
RMM:  46    -0.117726188199E+04    0.31502E-05   -0.99858E-06  1248   0.266E-03    0.201E-01
RMM:  47    -0.117726188128E+04    0.71148E-06   -0.65849E-06  1105   0.219E-03
   1 F= -.11845788E+04 E0= -.11845788E+04  d E =-.118458E+04  mag=     0.0008
       N       E                     dE             d eps       ncg     rms          rms(c)
DAV:   1    -0.117725442310E+04    0.74589E-02   -0.60635E-01  1600   0.131E+00    0.494E-01
RMM:   2    -0.117725745950E+04   -0.30364E-02   -0.34915E-02  1788   0.267E-01    0.416E-01
RMM:   3    -0.117725762513E+04   -0.16563E-03   -0.63593E-03  1722   0.109E-01    0.334E-01
RMM:   4    -0.117725774123E+04   -0.11610E-03   -0.39973E-03  1586   0.815E-02    0.959E-02
RMM:   5    -0.117725761433E+04    0.12690E-03   -0.53103E-04  1629   0.347E-02    0.775E-02
RMM:   6    -0.117725755421E+04    0.60123E-04   -0.17636E-04  1691   0.161E-02    0.520E-02
RMM:   7    -0.117725752863E+04    0.25578E-04   -0.79033E-05  1689   0.107E-02    0.225E-02
RMM:   8    -0.117725752315E+04    0.54785E-05   -0.57388E-05  1592   0.930E-03    0.136E-02
RMM:   9    -0.117725752199E+04    0.11628E-05   -0.85767E-06  1502   0.431E-03    0.937E-03
RMM:  10    -0.117725752191E+04    0.83470E-07   -0.73721E-06  1508   0.345E-03
   2 F= -.11845768E+04 E0= -.11845768E+04  d E =0.195016E-02  mag=    -0.0000
       N       E                     dE             d eps       ncg     rms          rms(c)
DAV:   1    -0.117726076642E+04   -0.32444E-02   -0.25043E-01  1696   0.858E-01    0.318E-01
RMM:   2    -0.117726187274E+04   -0.11063E-02   -0.13021E-02  1773   0.168E-01    0.271E-01
RMM:   3    -0.117726189789E+04   -0.25150E-04   -0.22470E-03  1714   0.671E-02    0.218E-01
RMM:   4    -0.117726192637E+04   -0.28481E-04   -0.16057E-03  1600   0.518E-02    0.710E-02
RMM:   5    -0.117726186947E+04    0.56896E-04   -0.20858E-04  1598   0.221E-02    0.537E-02
RMM:   6    -0.117726184992E+04    0.19555E-04   -0.66873E-05  1659   0.103E-02    0.316E-02
RMM:   7    -0.117726183359E+04    0.16334E-04   -0.46728E-05  1575   0.803E-03    0.170E-02
RMM:   8    -0.117726183221E+04    0.13754E-05   -0.35467E-05  1547   0.725E-03    0.103E-02
RMM:   9    -0.117726183103E+04    0.11751E-05   -0.40096E-06  1327   0.299E-03    0.716E-03
RMM:  10    -0.117726183102E+04    0.14588E-07   -0.37380E-06  1282   0.234E-03
   3 F= -.11845795E+04 E0= -.11845795E+04  d E =-.789282E-03  mag=     0.0000
       N       E                     dE             d eps       ncg     rms          rms(c)
DAV:   1    -0.117726020856E+04    0.16225E-02   -0.24889E-01  1824   0.907E-01    0.211E-01
RMM:   2    -0.117726158818E+04   -0.13796E-02   -0.16551E-02  1814   0.186E-01    0.161E-01
RMM:   3    -0.117726167612E+04   -0.87949E-04   -0.26071E-03  1731   0.711E-02    0.130E-01
RMM:   4    -0.117726159991E+04    0.76217E-04   -0.10632E-03  1666   0.414E-02    0.703E-02
RMM:   5    -0.117726161057E+04   -0.10663E-04   -0.24341E-04  1661   0.213E-02    0.445E-02
RMM:   6    -0.117726161162E+04   -0.10513E-05   -0.52427E-05  1700   0.991E-03    0.306E-02
RMM:   7    -0.117726160753E+04    0.40910E-05   -0.16085E-05  1535   0.524E-03    0.185E-02
RMM:   8    -0.117726160431E+04    0.32241E-05   -0.17627E-05  1524   0.488E-03    0.118E-02
RMM:   9    -0.117726160350E+04    0.80605E-06   -0.33067E-06  1184   0.258E-03
   4 F= -.11845803E+04 E0= -.11845803E+04  d E =-.758305E-03  mag=    -0.0000
       N       E                     dE             d eps       ncg     rms          rms(c)
DAV:   1    -0.117726177786E+04   -0.17355E-03   -0.80335E-03  1664   0.163E-01    0.404E-02
RMM:   2    -0.117726182116E+04   -0.43303E-04   -0.52440E-04  1808   0.335E-02    0.300E-02
RMM:   3    -0.117726182228E+04   -0.11183E-05   -0.81879E-05  1710   0.128E-02    0.230E-02
RMM:   4    -0.117726181877E+04    0.35131E-05   -0.34641E-05  1653   0.764E-03    0.116E-02
RMM:   5    -0.117726181878E+04   -0.11161E-07   -0.79572E-06  1457   0.385E-03
   5 F= -.11845803E+04 E0= -.11845803E+04  d E =-.794788E-03  mag=    -0.0000
       N       E                     dE             d eps       ncg     rms          rms(c)
DAV:   1    -0.117726116052E+04    0.65825E-03   -0.26922E-01  1600   0.887E-01    0.158E-01
RMM:   2    -0.117726178517E+04   -0.62464E-03   -0.79885E-03  1788   0.144E-01    0.130E-01
RMM:   3    -0.117726183980E+04   -0.54628E-04   -0.15914E-03  1717   0.599E-02    0.108E-01
RMM:   4    -0.117726181909E+04    0.20701E-04   -0.52018E-04  1657   0.320E-02    0.638E-02
RMM:   5    -0.117726183583E+04   -0.16734E-04   -0.15107E-04  1611   0.174E-02    0.313E-02
RMM:   6    -0.117726183351E+04    0.23226E-05   -0.33059E-05  1627   0.818E-03    0.204E-02
RMM:   7    -0.117726182994E+04    0.35681E-05   -0.19463E-05  1527   0.544E-03    0.996E-03
RMM:   8    -0.117726183027E+04   -0.32945E-06   -0.46739E-06  1263   0.283E-03
   6 F= -.11845809E+04 E0= -.11845809E+04  d E =-.556951E-03  mag=     0.0000
       N       E                     dE             d eps       ncg     rms          rms(c)
DAV:   1    -0.117726190704E+04   -0.77098E-04   -0.50290E-03  1728   0.121E-01    0.221E-02
RMM:   2    -0.117726191824E+04   -0.11204E-04   -0.14654E-04  1788   0.197E-02    0.180E-02
RMM:   3    -0.117726191838E+04   -0.14386E-06   -0.29056E-05  1687   0.823E-03    0.146E-02
RMM:   4    -0.117726191745E+04    0.93733E-06   -0.10801E-05  1598   0.460E-03    0.818E-03
RMM:   5    -0.117726191755E+04   -0.10066E-06   -0.30715E-06  1141   0.250E-03
   7 F= -.11845809E+04 E0= -.11845809E+04  d E =-.568967E-03  mag=    -0.0000
       N       E                     dE             d eps       ncg     rms          rms(c)
DAV:   1    -0.117726201890E+04   -0.10145E-03   -0.89615E-02  1536   0.506E-01    0.641E-02
RMM:   2    -0.117726216441E+04   -0.14552E-03   -0.19282E-03  1774   0.735E-02    0.555E-02
RMM:   3    -0.117726218571E+04   -0.21295E-04   -0.41878E-04  1725   0.314E-02    0.503E-02
RMM:   4    -0.117726218221E+04    0.34987E-05   -0.10030E-04  1702   0.147E-02    0.328E-02
RMM:   5    -0.117726218828E+04   -0.60695E-05   -0.54489E-05  1548   0.100E-02    0.103E-02
RMM:   6    -0.117726218898E+04   -0.69993E-06   -0.95172E-06  1583   0.466E-03
   8 F= -.11845814E+04 E0= -.11845814E+04  d E =-.535638E-03  mag=    -0.0000
