       N       E                     dE             d eps       ncg     rms          rms(c)
DAV:   1     0.460629675673E+04    0.46063E+04   -0.17213E+05  1908   0.899E+02
DAV:   2    -0.118811553958E+03   -0.47251E+04   -0.42943E+04  2556   0.211E+02
DAV:   3    -0.118377197412E+04   -0.10650E+04   -0.10601E+04  2124   0.107E+02
DAV:   4    -0.123398117195E+04   -0.50209E+02   -0.49956E+02  2232   0.338E+01
DAV:   5    -0.123557774441E+04   -0.15966E+01   -0.15896E+01  2196   0.495E+00    0.648E+01
RMM:   6    -0.122136392217E+04    0.14214E+02   -0.82389E+00  1804   0.360E+00    0.533E+01
RMM:   7    -0.118382657846E+04    0.37537E+02   -0.58260E+01  1802   0.940E+00    0.312E+01
RMM:   8    -0.117286770331E+04    0.10959E+02   -0.16629E+01  1751   0.782E+00    0.219E+01
RMM:   9    -0.116970566978E+04    0.31620E+01   -0.17987E+01  1769   0.634E+00    0.131E+01
RMM:  10    -0.117089529130E+04   -0.11896E+01   -0.78156E+00  1723   0.574E+00    0.810E+00
RMM:  11    -0.117023995533E+04    0.65534E+00   -0.11380E+00  1836   0.246E+00    0.510E+00
RMM:  12    -0.116988884778E+04    0.35111E+00   -0.16249E+00  1687   0.152E+00    0.199E+00
RMM:  13    -0.116985305725E+04    0.35791E-01   -0.18839E-01  1726   0.137E+00    0.107E+00
RMM:  14    -0.116984200533E+04    0.11052E-01   -0.69450E-02  1787   0.297E-01    0.605E-01
RMM:  15    -0.116983828312E+04    0.37222E-02   -0.13316E-02  1720   0.303E-01    0.534E-01
RMM:  16    -0.116983797096E+04    0.31216E-03   -0.52426E-03  1777   0.119E-01    0.402E-01
RMM:  17    -0.116983807431E+04   -0.10334E-03   -0.11477E-03  1494   0.899E-02    0.354E-01
RMM:  18    -0.116983850932E+04   -0.43502E-03   -0.51793E-04  1290   0.510E-02    0.217E-01
RMM:  19    -0.116983834508E+04    0.16425E-03   -0.46790E-04  1452   0.396E-02    0.117E-01
RMM:  20    -0.116983836139E+04   -0.16308E-04   -0.42197E-04  1276   0.453E-02
   1 F= -.11769397E+04 E0= -.11769397E+04  d E =-.117694E+04  mag=     0.0003
       N       E                     dE             d eps       ncg     rms          rms(c)
DAV:   1    -0.116983774649E+04    0.59859E-03   -0.25152E-01  1836   0.818E-01    0.151E-01
RMM:   2    -0.116983833544E+04   -0.58895E-03   -0.81460E-03  1812   0.133E-01    0.146E-01
RMM:   3    -0.116983824425E+04    0.91192E-04   -0.86281E-04  1455   0.103E-01
   2 F= -.11769397E+04 E0= -.11769397E+04  d E =0.150443E-04  mag=     0.0001
       N       E                     dE             d eps       ncg     rms          rms(c)
DAV:   1    -0.116983856106E+04   -0.22562E-03   -0.61946E-02  1728   0.405E-01    0.675E-02
RMM:   2    -0.116983876000E+04   -0.19895E-03   -0.17372E-03  1650   0.669E-02    0.530E-02
RMM:   3    -0.116983878254E+04   -0.22535E-04   -0.21666E-04  1115   0.632E-02
   3 F= -.11769402E+04 E0= -.11769402E+04  d E =-.472604E-03  mag=    -0.0000
