       N       E                     dE             d eps       ncg     rms          rms(c)
DAV:   1     0.464653476268E+04    0.46465E+04   -0.17902E+05  1944   0.920E+02
DAV:   2    -0.101214737399E+03   -0.47477E+04   -0.43345E+04  2520   0.205E+02
DAV:   3    -0.119422996100E+04   -0.10930E+04   -0.10874E+04  2160   0.107E+02
DAV:   4    -0.123751759178E+04   -0.43288E+02   -0.43018E+02  2016   0.272E+01
DAV:   5    -0.123857269980E+04   -0.10551E+01   -0.10525E+01  2340   0.386E+00    0.687E+01
RMM:   6    -0.122210124352E+04    0.16471E+02   -0.36490E+01  1590   0.573E+00    0.594E+01
RMM:   7    -0.120878889211E+04    0.13312E+02   -0.62182E+00  1584   0.279E+00    0.444E+01
RMM:   8    -0.118897930044E+04    0.19810E+02   -0.16051E+01  1585   0.465E+00    0.325E+01
RMM:   9    -0.117097638083E+04    0.18003E+02   -0.28820E+01  1584   0.615E+00    0.215E+01
RMM:  10    -0.116937421833E+04    0.16022E+01   -0.19032E+01  1584   0.495E+00    0.110E+01
RMM:  11    -0.117018235610E+04   -0.80814E+00   -0.25417E+00  1595   0.192E+00    0.730E+00
RMM:  12    -0.116953187848E+04    0.65048E+00   -0.13985E+00  1585   0.124E+00    0.391E+00
RMM:  13    -0.116932088700E+04    0.21099E+00   -0.33662E-01  1584   0.658E-01    0.218E+00
RMM:  14    -0.116925214983E+04    0.68737E-01   -0.20131E-01  1585   0.479E-01    0.773E-01
RMM:  15    -0.116925369021E+04   -0.15404E-02   -0.13486E-02  1626   0.138E-01    0.347E-01
RMM:  16    -0.116925364994E+04    0.40271E-04   -0.23577E-03  1582   0.533E-02    0.239E-01
RMM:  17    -0.116925397188E+04   -0.32194E-03   -0.18672E-03  1588   0.515E-02    0.134E-01
RMM:  18    -0.116925383436E+04    0.13752E-03   -0.43464E-04  1253   0.258E-02    0.868E-02
RMM:  19    -0.116925389341E+04   -0.59043E-04   -0.16545E-04  1083   0.183E-02
   1 F= -.11763927E+04 E0= -.11763927E+04  d E =-.117639E+04  mag=     0.9975
       N       E                     dE             d eps       ncg     rms          rms(c)
DAV:   1    -0.116920958249E+04    0.44252E-01   -0.85648E+00  1620   0.433E+00    0.182E+00
RMM:   2    -0.116925553717E+04   -0.45955E-01   -0.50672E-01  1589   0.741E-01    0.176E+00
RMM:   3    -0.116924491665E+04    0.10621E-01   -0.15838E-02  1789   0.129E-01    0.161E+00
RMM:   4    -0.116924357582E+04    0.13408E-02   -0.12142E-02  1584   0.115E-01    0.714E-01
RMM:   5    -0.116924343477E+04    0.14105E-03   -0.89514E-04  1363   0.335E-02    0.450E-01
RMM:   6    -0.116924400230E+04   -0.56754E-03   -0.48376E-04  1174   0.276E-02    0.955E-02
RMM:   7    -0.116924384057E+04    0.16173E-03   -0.19241E-04  1077   0.153E-02    0.712E-02
RMM:   8    -0.116924383929E+04    0.12765E-05   -0.20207E-05   999   0.677E-03
   2 F= -.11763857E+04 E0= -.11763857E+04  d E =0.701819E-02  mag=     1.0000
       N       E                     dE             d eps       ncg     rms          rms(c)
DAV:   1    -0.116924872806E+04   -0.48875E-02   -0.27945E+00  1620   0.248E+00    0.102E+00
RMM:   2    -0.116926455253E+04   -0.15824E-01   -0.17631E-01  1593   0.432E-01    0.104E+00
RMM:   3    -0.116926046487E+04    0.40877E-02   -0.54101E-03  1479   0.738E-02    0.101E+00
RMM:   4    -0.116925986974E+04    0.59513E-03   -0.54321E-03  1575   0.762E-02    0.469E-01
RMM:   5    -0.116925964471E+04    0.22503E-03   -0.68247E-04  1323   0.296E-02    0.298E-01
RMM:   6    -0.116925983489E+04   -0.19018E-03   -0.23870E-04  1094   0.196E-02    0.106E-01
RMM:   7    -0.116925980393E+04    0.30958E-04   -0.12753E-04  1040   0.135E-02
   3 F= -.11763999E+04 E0= -.11763999E+04  d E =-.721126E-02  mag=     1.0000
       N       E                     dE             d eps       ncg     rms          rms(c)
DAV:   1    -0.116925896216E+04    0.87272E-03   -0.98039E-01  1692   0.165E+00    0.358E-01
RMM:   2    -0.116926338212E+04   -0.44200E-02   -0.51931E-02  1596   0.273E-01    0.298E-01
RMM:   3    -0.116926174221E+04    0.16399E-02   -0.20043E-03  1505   0.548E-02    0.251E-01
RMM:   4    -0.116926092821E+04    0.81401E-03   -0.27279E-03  1585   0.591E-02    0.107E-01
RMM:   5    -0.116926097585E+04   -0.47647E-04   -0.24921E-04  1126   0.197E-02
   4 F= -.11764015E+04 E0= -.11764015E+04  d E =-.157643E-02  mag=     1.0000
       N       E                     dE             d eps       ncg     rms          rms(c)
DAV:   1    -0.116926138523E+04   -0.45702E-03   -0.74197E-02  1728   0.452E-01    0.905E-02
RMM:   2    -0.116926166765E+04   -0.28242E-03   -0.37689E-03  1512   0.733E-02    0.730E-02
RMM:   3    -0.116926151857E+04    0.14907E-03   -0.14343E-04  1041   0.161E-02    0.586E-02
RMM:   4    -0.116926143452E+04    0.84053E-04   -0.27087E-04  1142   0.194E-02
   5 F= -.11764018E+04 E0= -.11764018E+04  d E =-.192421E-02  mag=     1.0000
       N       E                     dE             d eps       ncg     rms          rms(c)
DAV:   1    -0.116925931600E+04    0.22026E-02   -0.60678E-01  1836   0.140E+00    0.228E-01
RMM:   2    -0.116926337891E+04   -0.40629E-02   -0.43731E-02  1590   0.235E-01    0.165E-01
RMM:   3    -0.116926239120E+04    0.98771E-03   -0.15381E-03  1294   0.446E-02    0.132E-01
RMM:   4    -0.116926222769E+04    0.16351E-03   -0.62720E-04  1356   0.291E-02    0.747E-02
RMM:   5    -0.116926221519E+04    0.12500E-04   -0.15470E-04  1057   0.160E-02
   6 F= -.11764028E+04 E0= -.11764028E+04  d E =-.990319E-03  mag=     1.0000
       N       E                     dE             d eps       ncg     rms          rms(c)
DAV:   1    -0.116926229297E+04   -0.65273E-04   -0.28609E-02  1800   0.303E-01    0.498E-02
RMM:   2    -0.116926247588E+04   -0.18291E-03   -0.21049E-03  1291   0.514E-02    0.358E-02
RMM:   3    -0.116926241685E+04    0.59032E-04   -0.78820E-05   978   0.122E-02
   7 F= -.11764030E+04 E0= -.11764030E+04  d E =-.114684E-02  mag=     1.0000
       N       E                     dE             d eps       ncg     rms          rms(c)
DAV:   1    -0.116926243674E+04    0.39143E-04   -0.15452E-01  1584   0.655E-01    0.991E-02
RMM:   2    -0.116926316396E+04   -0.72722E-03   -0.79170E-03  1602   0.106E-01    0.715E-02
RMM:   3    -0.116926298188E+04    0.18207E-03   -0.26315E-04  1091   0.209E-02    0.574E-02
RMM:   4    -0.116926295586E+04    0.26020E-04   -0.14736E-04  1053   0.156E-02
   8 F= -.11764036E+04 E0= -.11764036E+04  d E =-.667176E-03  mag=     1.0000
       N       E                     dE             d eps       ncg     rms          rms(c)
DAV:   1    -0.116926263259E+04    0.34930E-03   -0.10681E-01  1584   0.546E-01    0.947E-02
RMM:   2    -0.116926312731E+04   -0.49472E-03   -0.55519E-03  1582   0.886E-02    0.738E-02
RMM:   3    -0.116926299535E+04    0.13196E-03   -0.18379E-04  1069   0.177E-02    0.609E-02
RMM:   4    -0.116926298326E+04    0.12089E-04   -0.14552E-04  1059   0.154E-02
   9 F= -.11764038E+04 E0= -.11764038E+04  d E =-.803293E-03  mag=     1.0000
