       N       E                     dE             d eps       ncg     rms          rms(c)
DAV:   1     0.485844154141E+04    0.48584E+04   -0.17055E+05  1728   0.984E+02
DAV:   2    -0.347650711904E+01   -0.48619E+04   -0.44576E+04  2268   0.217E+02
DAV:   3    -0.118115537507E+04   -0.11777E+04   -0.11721E+04  1872   0.117E+02
DAV:   4    -0.123274041190E+04   -0.51585E+02   -0.51238E+02  1836   0.327E+01
DAV:   5    -0.123399782799E+04   -0.12574E+01   -0.12546E+01  2088   0.480E+00    0.799E+01
RMM:   6    -0.122028227238E+04    0.13716E+02   -0.76458E+00  1440   0.334E+00    0.686E+01
RMM:   7    -0.117015928992E+04    0.50123E+02   -0.10104E+02  1440   0.119E+01    0.357E+01
RMM:   8    -0.116736024732E+04    0.27990E+01   -0.15858E+01  1440   0.501E+00    0.223E+01
RMM:   9    -0.116807753821E+04   -0.71729E+00   -0.20105E+01  1440   0.547E+00    0.974E+00
RMM:  10    -0.116686723986E+04    0.12103E+01   -0.12836E+00  1455   0.133E+00    0.665E+00
RMM:  11    -0.116666329620E+04    0.20394E+00   -0.37309E+00  1440   0.212E+00    0.444E+00
RMM:  12    -0.116639852598E+04    0.26477E+00   -0.29225E-01  1441   0.531E-01    0.186E+00
RMM:  13    -0.116636776003E+04    0.30766E-01   -0.21045E-01  1449   0.346E-01    0.803E-01
RMM:  14    -0.116636428696E+04    0.34731E-02   -0.14388E-02  1445   0.121E-01    0.672E-01
RMM:  15    -0.116636428698E+04   -0.19791E-07   -0.99462E-03  1440   0.110E-01    0.483E-01
RMM:  16    -0.116636281874E+04    0.14682E-02   -0.75624E-03  1440   0.983E-02    0.202E-01
RMM:  17    -0.116636301888E+04   -0.20013E-03   -0.73162E-04  1184   0.322E-02    0.127E-01
RMM:  18    -0.116636291118E+04    0.10769E-03   -0.24904E-04   994   0.189E-02    0.635E-02
RMM:  19    -0.116636293241E+04   -0.21223E-04   -0.54156E-05   904   0.104E-02
   1 F= -.11736751E+04 E0= -.11736751E+04  d E =-.117368E+04  mag=     0.0005
       N       E                     dE             d eps       ncg     rms          rms(c)
DAV:   1    -0.116636519301E+04   -0.22818E-02   -0.43193E-01  1476   0.110E+00    0.536E-01
RMM:   2    -0.116636500203E+04    0.19098E-03   -0.96812E-03  1442   0.151E-01    0.500E-01
RMM:   3    -0.116636244810E+04    0.25539E-02   -0.40167E-03  1440   0.774E-02    0.248E-01
RMM:   4    -0.116636223229E+04    0.21581E-03   -0.35126E-03  1440   0.704E-02    0.771E-02
RMM:   5    -0.116636205619E+04    0.17611E-03   -0.33044E-04  1057   0.212E-02    0.493E-02
RMM:   6    -0.116636206339E+04   -0.72062E-05   -0.58712E-05   876   0.108E-02
   2 F= -.11736748E+04 E0= -.11736748E+04  d E =0.352900E-03  mag=     0.0000
       N       E                     dE             d eps       ncg     rms          rms(c)
DAV:   1    -0.116636441922E+04   -0.23630E-02   -0.11594E-01  1512   0.568E-01    0.275E-01
RMM:   2    -0.116636432584E+04    0.93380E-04   -0.23130E-03  1440   0.776E-02    0.252E-01
RMM:   3    -0.116636359203E+04    0.73381E-03   -0.12636E-03  1440   0.433E-02    0.107E-01
RMM:   4    -0.116636355504E+04    0.36987E-04   -0.67512E-04  1404   0.311E-02
   3 F= -.11736760E+04 E0= -.11736760E+04  d E =-.869028E-03  mag=     0.0000
