       N       E                     dE             d eps       ncg     rms          rms(c)
DAV:   1     0.496023419218E+04    0.49602E+04   -0.17143E+05  1728   0.990E+02
DAV:   2     0.320319637254E+02   -0.49282E+04   -0.45266E+04  2232   0.221E+02
DAV:   3    -0.117907461190E+04   -0.12111E+04   -0.12038E+04  1836   0.121E+02
DAV:   4    -0.123406499492E+04   -0.54990E+02   -0.54586E+02  1836   0.352E+01
DAV:   5    -0.123554261142E+04   -0.14776E+01   -0.14696E+01  1908   0.549E+00    0.621E+01
RMM:   6    -0.121881856125E+04    0.16724E+02   -0.90478E+00  1512   0.382E+00    0.509E+01
RMM:   7    -0.119806906968E+04    0.20749E+02   -0.17671E+02  1571   0.151E+01    0.519E+01
RMM:   8    -0.118767410424E+04    0.10395E+02   -0.52640E+00  1670   0.348E+00    0.486E+01
RMM:   9    -0.117730631318E+04    0.10368E+02   -0.20103E+00  1672   0.146E+00    0.324E+01
RMM:  10    -0.116980212269E+04    0.75042E+01   -0.58748E+00  1509   0.294E+00    0.219E+01
RMM:  11    -0.116994758451E+04   -0.14546E+00   -0.29355E+01  1481   0.679E+00    0.167E+01
RMM:  12    -0.117179758510E+04   -0.18500E+01   -0.17900E+00  1517   0.252E+00    0.164E+01
RMM:  13    -0.117420349898E+04   -0.24059E+01   -0.13492E+00  1616   0.132E+00    0.144E+01
RMM:  14    -0.117402236936E+04    0.18113E+00   -0.65520E-01  1565   0.113E+00    0.139E+01
RMM:  15    -0.117223717121E+04    0.17852E+01   -0.55220E-01  1625   0.990E-01    0.120E+01
RMM:  16    -0.117167981014E+04    0.55736E+00   -0.10892E-01  1582   0.523E-01    0.114E+01
RMM:  17    -0.117017802872E+04    0.15018E+01   -0.26211E-01  1722   0.518E-01    0.105E+01
RMM:  18    -0.116942617169E+04    0.75186E+00   -0.99804E-02  1732   0.330E-01    0.100E+01
RMM:  19    -0.116931873826E+04    0.10743E+00   -0.11436E-02  1798   0.104E-01    0.994E+00
RMM:  20    -0.116965384529E+04   -0.33511E+00   -0.98380E-03  1612   0.114E-01    0.102E+01
RMM:  21    -0.116907434267E+04    0.57950E+00   -0.28213E-02  1667   0.176E-01    0.975E+00
RMM:  22    -0.116587932468E+04    0.31950E+01   -0.25871E+00  1735   0.156E+00    0.549E+00
RMM:  23    -0.116619627124E+04   -0.31695E+00   -0.12332E-01  1732   0.343E-01    0.603E+00
RMM:  24    -0.116615968191E+04    0.36589E-01   -0.36135E+00  1729   0.171E+00    0.844E+00
RMM:  25    -0.116601303933E+04    0.14664E+00   -0.37256E-01  1763   0.382E-01    0.898E+00
RMM:  26    -0.116608598499E+04   -0.72946E-01   -0.31596E-02  1754   0.191E-01    0.896E+00
RMM:  27    -0.116614031035E+04   -0.54325E-01   -0.41776E-03  1402   0.766E-02    0.947E+00
RMM:  28    -0.116612821819E+04    0.12092E-01   -0.34851E-04   987   0.260E-02    0.939E+00
RMM:  29    -0.116623932654E+04   -0.11111E+00   -0.35015E-03  1403   0.602E-02    0.989E+00
RMM:  30    -0.116573267167E+04    0.50665E+00   -0.66460E-02  1635   0.254E-01    0.695E+00
RMM:  31    -0.116569674021E+04    0.35931E-01   -0.10625E-02  1433   0.848E-02    0.643E+00
RMM:  32    -0.116551551940E+04    0.18122E+00   -0.32911E-02  1674   0.182E-01    0.447E+00
RMM:  33    -0.116549787190E+04    0.17648E-01   -0.94198E-03  1493   0.928E-02    0.427E+00
RMM:  34    -0.116543879143E+04    0.59080E-01   -0.12143E-02  1637   0.108E-01    0.327E+00
RMM:  35    -0.116543850008E+04    0.29135E-03   -0.55912E-03  1503   0.780E-02    0.299E+00
RMM:  36    -0.116546364030E+04   -0.25140E-01   -0.34284E-03  1395   0.753E-02    0.342E+00
RMM:  37    -0.116549585099E+04   -0.32211E-01   -0.85124E-03  1570   0.102E-01    0.375E+00
RMM:  38    -0.116562545308E+04   -0.12960E+00   -0.18957E-01  1705   0.442E-01    0.392E+00
RMM:  39    -0.116548031981E+04    0.14513E+00   -0.31015E-02  1593   0.241E-01    0.248E+00
RMM:  40    -0.116545843103E+04    0.21889E-01   -0.45521E-03  1483   0.863E-02    0.219E+00
RMM:  41    -0.116545057083E+04    0.78602E-02   -0.14492E-03  1202   0.429E-02    0.209E+00
RMM:  42    -0.116545137645E+04   -0.80562E-03   -0.16739E-03  1068   0.383E-02    0.201E+00
RMM:  43    -0.116544624453E+04    0.51319E-02   -0.32036E-03  1312   0.524E-02    0.189E+00
RMM:  44    -0.116545577309E+04   -0.95286E-02   -0.13031E-03  1268   0.436E-02    0.197E+00
RMM:  45    -0.116547272450E+04   -0.16951E-01   -0.70309E-03  1495   0.911E-02    0.206E+00
RMM:  46    -0.116546882523E+04    0.38993E-02   -0.45151E-04  1023   0.392E-02    0.207E+00
RMM:  47    -0.116546506475E+04    0.37605E-02   -0.15374E-04   933   0.213E-02    0.203E+00
RMM:  48    -0.116545432459E+04    0.10740E-01   -0.12224E-02  1586   0.120E-01    0.213E+00
RMM:  49    -0.116541882636E+04    0.35498E-01   -0.15304E-02  1523   0.136E-01    0.131E+00
RMM:  50    -0.116542778672E+04   -0.89604E-02   -0.70295E-03  1483   0.109E-01    0.164E+00
RMM:  51    -0.116543376605E+04   -0.59793E-02   -0.36707E-02  1622   0.204E-01    0.236E+00
RMM:  52    -0.116542634363E+04    0.74224E-02   -0.45607E-03  1431   0.890E-02    0.215E+00
RMM:  53    -0.116542267317E+04    0.36705E-02   -0.12185E-03  1108   0.447E-02    0.190E+00
RMM:  54    -0.116541698776E+04    0.56854E-02   -0.17457E-03  1232   0.481E-02    0.149E+00
RMM:  55    -0.116541673530E+04    0.25246E-03   -0.24605E-03  1464   0.725E-02    0.134E+00
RMM:  56    -0.116541618120E+04    0.55410E-03   -0.34859E-03  1454   0.679E-02    0.116E+00
RMM:  57    -0.116542302412E+04   -0.68429E-02   -0.22801E-03  1496   0.633E-02    0.130E+00
RMM:  58    -0.116543066498E+04   -0.76409E-02   -0.24235E-03  1319   0.564E-02    0.168E+00
RMM:  59    -0.116543456144E+04   -0.38965E-02   -0.25929E-03  1384   0.590E-02    0.190E+00
RMM:  60    -0.116543083505E+04    0.37264E-02   -0.73644E-04  1103   0.516E-02    0.179E+00
RMM:  61    -0.116542695167E+04    0.38834E-02   -0.28819E-03  1360   0.707E-02    0.249E+00
RMM:  62    -0.116542648665E+04    0.46502E-03   -0.73239E-04  1145   0.818E-02    0.249E+00
RMM:  63    -0.116542293401E+04    0.35526E-02   -0.81500E-05   917   0.263E-02    0.230E+00
RMM:  64    -0.116541259735E+04    0.10337E-01   -0.93060E-04  1101   0.353E-02    0.138E+00
RMM:  65    -0.116541678931E+04   -0.41920E-02   -0.10127E-03  1162   0.478E-02    0.117E+00
RMM:  66    -0.116543005956E+04   -0.13270E-01   -0.91421E-03  1559   0.110E-01    0.201E+00
RMM:  67    -0.116542898383E+04    0.10757E-02   -0.10507E-03  1171   0.788E-02    0.201E+00
RMM:  68    -0.116542777885E+04    0.12050E-02   -0.14958E-04   945   0.284E-02    0.202E+00
RMM:  69    -0.116542603133E+04    0.17475E-02   -0.51344E-05   923   0.172E-02    0.202E+00
RMM:  70    -0.116542413550E+04    0.18958E-02   -0.53624E-05   908   0.125E-02    0.201E+00
RMM:  71    -0.116544429045E+04   -0.20155E-01   -0.19868E-03  1240   0.521E-02    0.252E+00
RMM:  72    -0.116543910454E+04    0.51859E-02   -0.16713E-04   940   0.294E-02    0.246E+00
RMM:  73    -0.116543077915E+04    0.83254E-02   -0.40632E-04   987   0.274E-02    0.234E+00
RMM:  74    -0.116541627168E+04    0.14507E-01   -0.15419E-03  1168   0.471E-02    0.190E+00
RMM:  75    -0.116540493792E+04    0.11334E-01   -0.28328E-03  1384   0.650E-02    0.780E-01
RMM:  76    -0.116541576884E+04   -0.10831E-01   -0.21730E-03  1412   0.748E-02    0.158E+00
RMM:  77    -0.116541264014E+04    0.31287E-02   -0.43367E-04  1041   0.410E-02    0.147E+00
RMM:  78    -0.116540669240E+04    0.59477E-02   -0.63289E-04  1038   0.354E-02    0.861E-01
RMM:  79    -0.116540941451E+04   -0.27221E-02   -0.17773E-04   936   0.311E-02    0.963E-01
RMM:  80    -0.116540959461E+04   -0.18010E-03   -0.27674E-05   893   0.125E-02    0.970E-01
RMM:  81    -0.116541030089E+04   -0.70628E-03   -0.74785E-05   911   0.133E-02    0.108E+00
RMM:  82    -0.116540751783E+04    0.27831E-02   -0.59916E-04  1046   0.319E-02    0.560E-01
RMM:  83    -0.116540884984E+04   -0.13320E-02   -0.13661E-04   929   0.287E-02    0.566E-01
RMM:  84    -0.116540889693E+04   -0.47094E-04   -0.46845E-05   902   0.167E-02
   1 F= -.11723796E+04 E0= -.11723629E+04  d E =-.117238E+04  mag=     0.0398
       N       E                     dE             d eps       ncg     rms          rms(c)
DAV:   1    -0.116538195100E+04    0.26899E-01   -0.53914E+00  1548   0.427E+00    0.109E+00
RMM:   2    -0.116540925220E+04   -0.27301E-01   -0.32000E-01  1549   0.821E-01    0.119E+00
RMM:   3    -0.116540939175E+04   -0.13954E-03   -0.20057E-02  1687   0.215E-01    0.129E+00
RMM:   4    -0.116540894037E+04    0.45138E-03   -0.36928E-03  1600   0.694E-02    0.116E+00
RMM:   5    -0.116540908374E+04   -0.14337E-03   -0.52252E-04  1079   0.345E-02    0.123E+00
RMM:   6    -0.116540930131E+04   -0.21757E-03   -0.65752E-04  1225   0.368E-02    0.122E+00
RMM:   7    -0.116541445942E+04   -0.51581E-02   -0.40247E-03  1456   0.779E-02    0.158E+00
RMM:   8    -0.116541027835E+04    0.41811E-02   -0.21228E-02  1453   0.177E-01    0.772E-01
RMM:   9    -0.116541453454E+04   -0.42562E-02   -0.16339E-03  1206   0.666E-02    0.877E-01
RMM:  10    -0.116540712830E+04    0.74062E-02   -0.70861E-02  1458   0.325E-01    0.136E+00
RMM:  11    -0.116541059339E+04   -0.34651E-02   -0.44327E-03  1481   0.121E-01    0.121E+00
RMM:  12    -0.116540522178E+04    0.53716E-02   -0.74127E-03  1438   0.103E-01    0.563E-01
RMM:  13    -0.116540430948E+04    0.91229E-03   -0.55076E-03  1463   0.103E-01    0.168E-01
RMM:  14    -0.116540471022E+04   -0.40073E-03   -0.17495E-03  1384   0.569E-02    0.171E-01
RMM:  15    -0.116540457265E+04    0.13757E-03   -0.33109E-04  1030   0.279E-02    0.139E-01
RMM:  16    -0.116540463737E+04   -0.64729E-04   -0.10657E-04   914   0.178E-02
   2 F= -.11723753E+04 E0= -.11723610E+04  d E =0.432578E-02  mag=     0.0030
       N       E                     dE             d eps       ncg     rms          rms(c)
DAV:   1    -0.116540821833E+04   -0.36457E-02   -0.16681E+00  1512   0.238E+00    0.412E-01
RMM:   2    -0.116541715328E+04   -0.89349E-02   -0.99393E-02  1570   0.459E-01    0.512E-01
RMM:   3    -0.116541722527E+04   -0.71996E-04   -0.61458E-03  1561   0.119E-01    0.571E-01
RMM:   4    -0.116541702479E+04    0.20048E-03   -0.12293E-03  1240   0.427E-02    0.578E-01
RMM:   5    -0.116541742042E+04   -0.39563E-03   -0.11377E-04   941   0.198E-02    0.671E-01
RMM:   6    -0.116541649257E+04    0.92785E-03   -0.50440E-04  1143   0.305E-02    0.594E-01
RMM:   7    -0.116541701241E+04   -0.51985E-03   -0.25982E-04   970   0.241E-02    0.550E-01
RMM:   8    -0.116541585979E+04    0.11526E-02   -0.12750E-04   924   0.201E-02    0.520E-01
RMM:   9    -0.116541584947E+04    0.10326E-04   -0.55219E-04  1243   0.309E-02
   3 F= -.11723865E+04 E0= -.11723715E+04  d E =-.691311E-02  mag=     0.0030
       N       E                     dE             d eps       ncg     rms          rms(c)
DAV:   1    -0.116539808350E+04    0.17776E-01   -0.18740E+00  1512   0.267E+00    0.527E-01
RMM:   2    -0.116541705686E+04   -0.18973E-01   -0.19890E-01  1643   0.477E-01    0.376E-01
RMM:   3    -0.116541713145E+04   -0.74584E-04   -0.11696E-02  1487   0.148E-01    0.361E-01
RMM:   4    -0.116541743117E+04   -0.29973E-03   -0.19186E-03  1158   0.437E-02    0.462E-01
RMM:   5    -0.116541654763E+04    0.88354E-03   -0.18174E-04   947   0.235E-02    0.282E-01
RMM:   6    -0.116541650680E+04    0.40836E-04   -0.41049E-04  1110   0.270E-02
   4 F= -.11723873E+04 E0= -.11723729E+04  d E =-.738287E-03  mag=     0.0087
       N       E                     dE             d eps       ncg     rms          rms(c)
DAV:   1    -0.116541447171E+04    0.20759E-02   -0.44771E-01  1512   0.130E+00    0.205E-01
RMM:   2    -0.116541909070E+04   -0.46190E-02   -0.46671E-02  1621   0.237E-01    0.204E-01
RMM:   3    -0.116541926912E+04   -0.17842E-03   -0.26284E-03  1154   0.740E-02    0.250E-01
RMM:   4    -0.116541883830E+04    0.43083E-03   -0.49461E-04  1015   0.263E-02    0.213E-01
RMM:   5    -0.116541894526E+04   -0.10696E-03   -0.40655E-05   912   0.135E-02    0.226E-01
RMM:   6    -0.116541879777E+04    0.14748E-03   -0.56210E-05   916   0.117E-02    0.216E-01
RMM:   7    -0.116541896108E+04   -0.16331E-03   -0.14758E-05   831   0.805E-03    0.216E-01
RMM:   8    -0.116541894570E+04    0.15380E-04   -0.37620E-06   610   0.463E-03
   5 F= -.11723897E+04 E0= -.11723748E+04  d E =-.313776E-02  mag=     0.0010
       N       E                     dE             d eps       ncg     rms          rms(c)
DAV:   1    -0.116541501441E+04    0.39467E-02   -0.72044E-01  1512   0.167E+00    0.356E-01
RMM:   2    -0.116542067911E+04   -0.56647E-02   -0.62353E-02  1616   0.307E-01    0.251E-01
RMM:   3    -0.116542042064E+04    0.25847E-03   -0.33676E-03  1354   0.856E-02    0.222E-01
RMM:   4    -0.116542010272E+04    0.31792E-03   -0.77051E-04  1127   0.336E-02    0.193E-01
RMM:   5    -0.116542019919E+04   -0.96472E-04   -0.11845E-04   934   0.191E-02
   6 F= -.11723908E+04 E0= -.11723765E+04  d E =-.115854E-02  mag=     0.0099
       N       E                     dE             d eps       ncg     rms          rms(c)
DAV:   1    -0.116541937609E+04    0.72663E-03   -0.71365E-02  1584   0.524E-01    0.115E-01
RMM:   2    -0.116542035700E+04   -0.98091E-03   -0.60745E-03  1564   0.965E-02    0.126E-01
RMM:   3    -0.116542039677E+04   -0.39767E-04   -0.32128E-04   960   0.297E-02
   7 F= -.11723910E+04 E0= -.11723765E+04  d E =-.138197E-02  mag=     0.0159
       N       E                     dE             d eps       ncg     rms          rms(c)
DAV:   1    -0.116541779253E+04    0.25645E-02   -0.59175E-01  1512   0.151E+00    0.266E-01
RMM:   2    -0.116542227446E+04   -0.44819E-02   -0.40669E-02  1642   0.256E-01    0.255E-01
RMM:   3    -0.116542275874E+04   -0.48428E-03   -0.22876E-03  1236   0.699E-02    0.298E-01
RMM:   4    -0.116542206518E+04    0.69356E-03   -0.39511E-04   993   0.265E-02    0.268E-01
RMM:   5    -0.116542191762E+04    0.14756E-03   -0.47045E-05   920   0.133E-02    0.269E-01
RMM:   6    -0.116542115581E+04    0.76181E-03   -0.11995E-04   926   0.155E-02    0.215E-01
RMM:   7    -0.116542099456E+04    0.16124E-03   -0.10225E-04   920   0.125E-02    0.170E-01
RMM:   8    -0.116542101242E+04   -0.17858E-04   -0.87168E-04  1335   0.363E-02
   8 F= -.11723916E+04 E0= -.11723773E+04  d E =-.589192E-03  mag=    -0.0024
       N       E                     dE             d eps       ncg     rms          rms(c)
DAV:   1    -0.116542120312E+04   -0.20856E-03   -0.74233E-04  1584   0.352E-02    0.493E-02
RMM:   2    -0.116542124258E+04   -0.39457E-04   -0.52125E-05   896   0.114E-02
   9 F= -.11723919E+04 E0= -.11723775E+04  d E =-.819269E-03  mag=    -0.0012
