       N       E                     dE             d eps       ncg     rms          rms(c)
DAV:   1     0.485410596232E+04    0.48541E+04   -0.17123E+05  1872   0.903E+02
DAV:   2    -0.636012092118E+02   -0.49177E+04   -0.44689E+04  2520   0.205E+02
DAV:   3    -0.118799934256E+04   -0.11244E+04   -0.11198E+04  2088   0.109E+02
DAV:   4    -0.123449109739E+04   -0.46492E+02   -0.46253E+02  2088   0.301E+01
DAV:   5    -0.123581564519E+04   -0.13245E+01   -0.13219E+01  2340   0.470E+00    0.625E+01
RMM:   6    -0.122166053940E+04    0.14155E+02   -0.81160E+00  1659   0.335E+00    0.514E+01
RMM:   7    -0.118312913050E+04    0.38531E+02   -0.10129E+02  1648   0.114E+01    0.354E+01
RMM:   8    -0.117834138720E+04    0.47877E+01   -0.35620E+00  1733   0.281E+00    0.273E+01
RMM:   9    -0.117254369511E+04    0.57977E+01   -0.10060E+01  1615   0.358E+00    0.190E+01
RMM:  10    -0.117212906841E+04    0.41463E+00   -0.24256E+01  1585   0.561E+00    0.102E+01
RMM:  11    -0.117064362907E+04    0.14854E+01   -0.10830E+00  1671   0.164E+00    0.620E+00
RMM:  12    -0.116990918387E+04    0.73445E+00   -0.21468E+00  1657   0.154E+00    0.311E+00
RMM:  13    -0.116982470798E+04    0.84476E-01   -0.21358E-01  1691   0.577E-01    0.198E+00
RMM:  14    -0.116981014801E+04    0.14560E-01   -0.11257E-01  1627   0.397E-01    0.170E+00
RMM:  15    -0.116980179042E+04    0.83576E-02   -0.37891E-02  1746   0.223E-01    0.919E-01
RMM:  16    -0.116980040283E+04    0.13876E-02   -0.40058E-03  1738   0.858E-02    0.655E-01
RMM:  17    -0.116979895368E+04    0.14492E-02   -0.34555E-03  1655   0.633E-02    0.355E-01
RMM:  18    -0.116979908044E+04   -0.12676E-03   -0.16401E-03  1610   0.486E-02    0.168E-01
RMM:  19    -0.116979931722E+04   -0.23678E-03   -0.91116E-04  1470   0.343E-02    0.140E-01
RMM:  20    -0.116979902469E+04    0.29252E-03   -0.19329E-04  1138   0.201E-02    0.864E-02
RMM:  21    -0.116979890381E+04    0.12089E-03   -0.12631E-04  1076   0.156E-02    0.354E-02
RMM:  22    -0.116979888654E+04    0.17264E-04   -0.36763E-05  1024   0.963E-03
   1 F= -.11768003E+04 E0= -.11768003E+04  d E =-.117680E+04  mag=     0.0002
       N       E                     dE             d eps       ncg     rms          rms(c)
DAV:   1    -0.116979391425E+04    0.49896E-02   -0.77460E-01  1692   0.153E+00    0.243E-01
RMM:   2    -0.116979793862E+04   -0.40244E-02   -0.46888E-02  1773   0.284E-01    0.304E-01
RMM:   3    -0.116979791648E+04    0.22133E-04   -0.32335E-03  1760   0.797E-02    0.347E-01
RMM:   4    -0.116979787172E+04    0.44765E-04   -0.46336E-04  1172   0.243E-02
   2 F= -.11767994E+04 E0= -.11767994E+04  d E =0.914286E-03  mag=    -0.0001
       N       E                     dE             d eps       ncg     rms          rms(c)
DAV:   1    -0.116979886330E+04   -0.94682E-03   -0.27080E-01  1764   0.901E-01    0.528E-01
RMM:   2    -0.116980002471E+04   -0.11614E-02   -0.14997E-02  1691   0.161E-01    0.393E-01
RMM:   3    -0.116979985262E+04    0.17209E-03   -0.21352E-03  1679   0.630E-02    0.178E-01
RMM:   4    -0.116979986215E+04   -0.95270E-05   -0.57128E-04  1296   0.284E-02
   3 F= -.11768013E+04 E0= -.11768013E+04  d E =-.101483E-02  mag=     0.0000
