       N       E                     dE             d eps       ncg     rms          rms(c)
DAV:   1     0.500445100948E+04    0.50045E+04   -0.16999E+05  1692   0.991E+02
DAV:   2     0.422101077577E+02   -0.49622E+04   -0.45634E+04  2268   0.223E+02
DAV:   3    -0.117618339050E+04   -0.12184E+04   -0.12108E+04  1872   0.122E+02
DAV:   4    -0.123138270964E+04   -0.55199E+02   -0.54815E+02  1872   0.351E+01
DAV:   5    -0.123285868754E+04   -0.14760E+01   -0.14688E+01  2016   0.543E+00    0.690E+01
RMM:   6    -0.121975103056E+04    0.13108E+02   -0.40829E+01  1488   0.691E+00    0.561E+01
RMM:   7    -0.120293381747E+04    0.16817E+02   -0.71499E+00  1441   0.369E+00    0.459E+01
RMM:   8    -0.118542155075E+04    0.17512E+02   -0.56171E+01  1450   0.929E+00    0.368E+01
RMM:   9    -0.116635419776E+04    0.19067E+02   -0.23263E+01  1444   0.607E+00    0.218E+01
RMM:  10    -0.117118421325E+04   -0.48300E+01   -0.14330E+01  1454   0.485E+00    0.137E+01
RMM:  11    -0.116742328790E+04    0.37609E+01   -0.35758E+00  1448   0.261E+00    0.857E+00
RMM:  12    -0.116621849538E+04    0.12048E+01   -0.92943E-01  1530   0.116E+00    0.630E+00
RMM:  13    -0.116519608274E+04    0.10224E+01   -0.21428E+00  1445   0.172E+00    0.282E+00
RMM:  14    -0.116527453702E+04   -0.78454E-01   -0.10105E-01  1496   0.544E-01    0.256E+00
RMM:  15    -0.116537229832E+04   -0.97761E-01   -0.47575E-02  1483   0.261E-01    0.261E+00
RMM:  16    -0.116517897352E+04    0.19332E+00   -0.51588E-02  1467   0.242E-01    0.196E+00
RMM:  17    -0.116516159752E+04    0.17376E-01   -0.65020E-03  1477   0.115E-01    0.188E+00
RMM:  18    -0.116516415273E+04   -0.25552E-02   -0.78751E-04  1104   0.302E-02    0.192E+00
RMM:  19    -0.116508898897E+04    0.75164E-01   -0.18662E-02  1467   0.111E-01    0.150E+00
RMM:  20    -0.116508423541E+04    0.47536E-02   -0.56146E-03  1359   0.722E-02    0.187E+00
RMM:  21    -0.116508373152E+04    0.50389E-03   -0.45321E-04   992   0.261E-02    0.185E+00
RMM:  22    -0.116508423578E+04   -0.50426E-03   -0.21553E-04   956   0.181E-02    0.197E+00
RMM:  23    -0.116508322000E+04    0.10158E-02   -0.12451E-04   939   0.155E-02    0.196E+00
RMM:  24    -0.116507951288E+04    0.37071E-02   -0.10136E-03  1284   0.338E-02    0.208E+00
RMM:  25    -0.116506938533E+04    0.10128E-01   -0.59537E-03  1500   0.899E-02    0.195E+00
RMM:  26    -0.116507347178E+04   -0.40865E-02   -0.17557E-03  1405   0.558E-02    0.202E+00
RMM:  27    -0.116507367584E+04   -0.20406E-03   -0.13418E-04   932   0.209E-02    0.207E+00
RMM:  28    -0.116505656384E+04    0.17112E-01   -0.77512E-03  1456   0.105E-01    0.951E-01
RMM:  29    -0.116505534802E+04    0.12158E-02   -0.54741E-03  1472   0.824E-02    0.515E-01
RMM:  30    -0.116505724188E+04   -0.18939E-02   -0.11136E-03  1111   0.371E-02    0.563E-01
RMM:  31    -0.116505696022E+04    0.28166E-03   -0.15549E-04   933   0.225E-02    0.522E-01
RMM:  32    -0.116505546990E+04    0.14903E-02   -0.23823E-03  1437   0.703E-02    0.392E-01
RMM:  33    -0.116505528943E+04    0.18047E-03   -0.60809E-04  1085   0.323E-02    0.440E-01
RMM:  34    -0.116505526671E+04    0.22720E-04   -0.78113E-05   901   0.174E-02
   1 F= -.11722523E+04 E0= -.11722307E+04  d E =-.117225E+04  mag=    -0.1586
       N       E                     dE             d eps       ncg     rms          rms(c)
DAV:   1    -0.116505739226E+04   -0.21028E-02   -0.34754E+00  1476   0.309E+00    0.145E+00
RMM:   2    -0.116508875156E+04   -0.31359E-01   -0.16275E-01  1470   0.568E-01    0.214E+00
RMM:   3    -0.116505037862E+04    0.38373E-01   -0.17699E-02  1579   0.178E-01    0.593E-01
RMM:   4    -0.116505067435E+04   -0.29573E-03   -0.18430E-03  1291   0.555E-02    0.588E-01
RMM:   5    -0.116505087547E+04   -0.20112E-03   -0.22458E-04   968   0.236E-02    0.639E-01
RMM:   6    -0.116504936399E+04    0.15115E-02   -0.18923E-04   938   0.204E-02    0.518E-01
RMM:   7    -0.116504474648E+04    0.46175E-02   -0.16041E-02  1440   0.151E-01    0.269E-01
RMM:   8    -0.116504507123E+04   -0.32476E-03   -0.33811E-03  1478   0.763E-02    0.263E-01
RMM:   9    -0.116504445339E+04    0.61785E-03   -0.12692E-03  1363   0.490E-02    0.123E-01
RMM:  10    -0.116504442955E+04    0.23835E-04   -0.18237E-04   925   0.244E-02
   2 F= -.11722412E+04 E0= -.11722191E+04  d E =0.110612E-01  mag=    -0.1183
       N       E                     dE             d eps       ncg     rms          rms(c)
DAV:   1    -0.116507030083E+04   -0.25847E-01   -0.13949E+00  1440   0.196E+00    0.131E+00
RMM:   2    -0.116509399382E+04   -0.23693E-01   -0.67708E-02  1459   0.368E-01    0.175E+00
RMM:   3    -0.116506241895E+04    0.31575E-01   -0.87969E-03  1521   0.122E-01    0.373E-01
RMM:   4    -0.116506204583E+04    0.37312E-03   -0.10091E-03  1230   0.439E-02    0.399E-01
RMM:   5    -0.116506207416E+04   -0.28323E-04   -0.16146E-04   941   0.214E-02
   3 F= -.11722590E+04 E0= -.11722371E+04  d E =-.671699E-02  mag=    -0.0545
       N       E                     dE             d eps       ncg     rms          rms(c)
DAV:   1    -0.116505342832E+04    0.86175E-02   -0.10543E+00  1584   0.178E+00    0.701E-01
RMM:   2    -0.116505866595E+04   -0.52376E-02   -0.31198E-02  1443   0.288E-01    0.937E-01
RMM:   3    -0.116505374367E+04    0.49223E-02   -0.28183E-03  1465   0.801E-02    0.703E-01
RMM:   4    -0.116505343682E+04    0.30685E-03   -0.56048E-04  1081   0.339E-02    0.560E-01
RMM:   5    -0.116505377805E+04   -0.34124E-03   -0.73257E-05   905   0.179E-02    0.559E-01
RMM:   6    -0.116505385889E+04   -0.80838E-04   -0.24429E-05   884   0.104E-02
   4 F= -.11722502E+04 E0= -.11722286E+04  d E =0.883398E-02  mag=    -0.0297
       N       E                     dE             d eps       ncg     rms          rms(c)
DAV:   1    -0.116505833260E+04   -0.45545E-02   -0.49082E-01  1656   0.119E+00    0.581E-01
RMM:   2    -0.116506377376E+04   -0.54412E-02   -0.20409E-02  1448   0.221E-01    0.892E-01
RMM:   3    -0.116505987045E+04    0.39033E-02   -0.18300E-03  1390   0.633E-02    0.447E-01
RMM:   4    -0.116506066482E+04   -0.79437E-03   -0.21170E-04   949   0.240E-02    0.596E-01
RMM:   5    -0.116505855263E+04    0.21122E-02   -0.26844E-04   923   0.231E-02    0.155E-01
RMM:   6    -0.116505895501E+04   -0.40237E-03   -0.83819E-05   877   0.161E-02    0.959E-02
RMM:   7    -0.116505910085E+04   -0.14584E-03   -0.12802E-04   876   0.178E-02    0.463E-02
RMM:   8    -0.116505910197E+04   -0.11249E-05   -0.23614E-05   849   0.113E-02
   5 F= -.11722558E+04 E0= -.11722334E+04  d E =0.320971E-02  mag=    -0.0169
       N       E                     dE             d eps       ncg     rms          rms(c)
DAV:   1    -0.116506009337E+04   -0.99252E-03   -0.33718E-02  1656   0.318E-01    0.159E-01
RMM:   2    -0.116506057099E+04   -0.47762E-03   -0.13568E-03  1383   0.562E-02    0.282E-01
RMM:   3    -0.116506001068E+04    0.56031E-03   -0.15057E-04   891   0.189E-02    0.716E-02
RMM:   4    -0.116506003946E+04   -0.28787E-04   -0.25668E-05   847   0.105E-02
   6 F= -.11722569E+04 E0= -.11722344E+04  d E =0.216310E-02  mag=    -0.0163
       N       E                     dE             d eps       ncg     rms          rms(c)
DAV:   1    -0.116506387801E+04   -0.38673E-02   -0.47273E-01  1440   0.114E+00    0.794E-01
RMM:   2    -0.116507512115E+04   -0.11243E-01   -0.23478E-02  1459   0.208E-01    0.135E+00
RMM:   3    -0.116506097120E+04    0.14150E-01   -0.37594E-03  1435   0.759E-02    0.283E-01
RMM:   4    -0.116506058243E+04    0.38876E-03   -0.35965E-04   996   0.297E-02    0.241E-01
RMM:   5    -0.116505974701E+04    0.83543E-03   -0.17688E-03  1440   0.539E-02    0.312E-01
RMM:   6    -0.116505907716E+04    0.66985E-03   -0.83509E-04  1412   0.404E-02    0.139E-01
RMM:   7    -0.116505907771E+04   -0.55162E-06   -0.19430E-04   908   0.237E-02
   7 F= -.11722561E+04 E0= -.11722336E+04  d E =0.787167E-03  mag=    -0.0111
       N       E                     dE             d eps       ncg     rms          rms(c)
DAV:   1    -0.116506209092E+04   -0.30138E-02   -0.17750E-01  1584   0.713E-01    0.468E-01
RMM:   2    -0.116506642508E+04   -0.43342E-02   -0.92776E-03  1462   0.132E-01    0.854E-01
RMM:   3    -0.116506109354E+04    0.53315E-02   -0.13279E-03  1236   0.492E-02    0.142E-01
RMM:   4    -0.116506107151E+04    0.22034E-04   -0.14191E-04   888   0.199E-02
   8 F= -.11722580E+04 E0= -.11722355E+04  d E =-.109669E-02  mag=    -0.0251
       N       E                     dE             d eps       ncg     rms          rms(c)
DAV:   1    -0.116506283515E+04   -0.17416E-02   -0.20099E-01  1656   0.777E-01    0.487E-01
RMM:   2    -0.116506544418E+04   -0.26090E-02   -0.81297E-03  1452   0.134E-01    0.747E-01
RMM:   3    -0.116506224773E+04    0.31965E-02   -0.10146E-03  1197   0.441E-02    0.533E-01
RMM:   4    -0.116506158400E+04    0.66373E-03   -0.27031E-04   926   0.251E-02    0.294E-01
RMM:   5    -0.116506108026E+04    0.50374E-03   -0.18116E-04   888   0.211E-02    0.245E-01
RMM:   6    -0.116505925113E+04    0.18291E-02   -0.61267E-03  1440   0.978E-02    0.825E-02
RMM:   7    -0.116505924874E+04    0.23884E-05   -0.24262E-04   940   0.297E-02
   9 F= -.11722559E+04 E0= -.11722335E+04  d E =0.204583E-02  mag=    -0.0067
       N       E                     dE             d eps       ncg     rms          rms(c)
DAV:   1    -0.116506124650E+04   -0.19954E-02   -0.74825E-02  1584   0.464E-01    0.245E-01
RMM:   2    -0.116506228281E+04   -0.10363E-02   -0.29551E-03  1457   0.812E-02    0.433E-01
RMM:   3    -0.116506092703E+04    0.13558E-02   -0.34516E-04   943   0.281E-02    0.109E-01
RMM:   4    -0.116506089425E+04    0.32783E-04   -0.68622E-05   850   0.155E-02
  10 F= -.11722577E+04 E0= -.11722352E+04  d E =0.270128E-03  mag=    -0.0175
