       N       E                     dE             d eps       ncg     rms          rms(c)
DAV:   1     0.485276490367E+04    0.48528E+04   -0.17194E+05  1872   0.905E+02
DAV:   2    -0.553199907259E+02   -0.49081E+04   -0.44564E+04  2520   0.204E+02
DAV:   3    -0.119017840804E+04   -0.11349E+04   -0.11305E+04  2124   0.109E+02
DAV:   4    -0.123575818122E+04   -0.45580E+02   -0.45345E+02  2088   0.287E+01
DAV:   5    -0.123689792342E+04   -0.11397E+01   -0.11368E+01  2268   0.420E+00    0.630E+01
RMM:   6    -0.121891268259E+04    0.17985E+02   -0.90843E+00  1592   0.332E+00    0.520E+01
RMM:   7    -0.118867798721E+04    0.30235E+02   -0.11356E+02  1605   0.107E+01    0.329E+01
RMM:   8    -0.117652305987E+04    0.12155E+02   -0.51313E+00  1658   0.255E+00    0.279E+01
RMM:   9    -0.116977486917E+04    0.67482E+01   -0.84343E+00  1588   0.310E+00    0.209E+01
RMM:  10    -0.117131291882E+04   -0.15380E+01   -0.22596E+01  1586   0.530E+00    0.118E+01
RMM:  11    -0.116975047313E+04    0.15624E+01   -0.14414E+00  1604   0.140E+00    0.948E+00
RMM:  12    -0.116811216477E+04    0.16383E+01   -0.43788E+00  1606   0.143E+00    0.554E+00
RMM:  13    -0.116785809459E+04    0.25407E+00   -0.34661E-01  1646   0.500E-01    0.427E+00
RMM:  14    -0.116709661311E+04    0.76148E+00   -0.14880E+00  1588   0.130E+00    0.208E+00
RMM:  15    -0.116675885451E+04    0.33776E+00   -0.22554E-01  1598   0.506E-01    0.126E+00
RMM:  16    -0.116739683441E+04   -0.63798E+00   -0.27534E-01  1601   0.466E-01    0.692E-01
RMM:  17    -0.116752763323E+04   -0.13080E+00   -0.16667E-01  1592   0.311E-01    0.459E-01
RMM:  18    -0.116754482935E+04   -0.17196E-01   -0.48162E-02  1602   0.126E-01    0.321E-01
RMM:  19    -0.116754636896E+04   -0.15396E-02   -0.10660E-02  1567   0.558E-02    0.219E-01
RMM:  20    -0.116754616024E+04    0.20872E-03   -0.19728E-03  1591   0.409E-02    0.128E-01
RMM:  21    -0.116754608319E+04    0.77042E-04   -0.57809E-04  1308   0.266E-02
   1 F= -.11747865E+04 E0= -.11747865E+04  d E =-.117479E+04  mag=     1.0080
       N       E                     dE             d eps       ncg     rms          rms(c)
DAV:   1    -0.116754459524E+04    0.15650E-02   -0.31452E-01  1800   0.888E-01    0.265E-01
RMM:   2    -0.116754555423E+04   -0.95899E-03   -0.12976E-02  1649   0.149E-01    0.234E-01
RMM:   3    -0.116754509991E+04    0.45433E-03   -0.99711E-04  1533   0.365E-02    0.183E-01
RMM:   4    -0.116754484973E+04    0.25018E-03   -0.22512E-03  1584   0.517E-02    0.697E-02
RMM:   5    -0.116754481133E+04    0.38395E-04   -0.80242E-05  1057   0.121E-02
   2 F= -.11747860E+04 E0= -.11747860E+04  d E =0.524029E-03  mag=     1.0017
       N       E                     dE             d eps       ncg     rms          rms(c)
DAV:   1    -0.116754627274E+04   -0.14230E-02   -0.11662E-01  1692   0.540E-01    0.157E-01
RMM:   2    -0.116754653536E+04   -0.26262E-03   -0.42103E-03  1636   0.856E-02    0.139E-01
RMM:   3    -0.116754633613E+04    0.19923E-03   -0.30703E-04  1128   0.217E-02    0.107E-01
RMM:   4    -0.116754621995E+04    0.11617E-03   -0.94470E-04  1579   0.343E-02    0.357E-02
RMM:   5    -0.116754620860E+04    0.11355E-04   -0.21729E-05  1013   0.720E-03
   3 F= -.11747869E+04 E0= -.11747869E+04  d E =-.413494E-03  mag=     1.0006
