       N       E                     dE             d eps       ncg     rms          rms(c)
DAV:   1     0.494198453555E+04    0.49420E+04   -0.17110E+05  1836   0.907E+02
DAV:   2    -0.406677269368E+02   -0.49827E+04   -0.45357E+04  2520   0.208E+02
DAV:   3    -0.118428170593E+04   -0.11436E+04   -0.11390E+04  2196   0.110E+02
DAV:   4    -0.123070880465E+04   -0.46427E+02   -0.46184E+02  2016   0.288E+01
DAV:   5    -0.123207673060E+04   -0.13679E+01   -0.13644E+01  2484   0.434E+00    0.676E+01
RMM:   6    -0.121932782144E+04    0.12749E+02   -0.72231E+00  1587   0.309E+00    0.601E+01
RMM:   7    -0.119876722168E+04    0.20561E+02   -0.16198E+01  1588   0.463E+00    0.476E+01
RMM:   8    -0.117166415459E+04    0.27103E+02   -0.47912E+01  1587   0.778E+00    0.317E+01
RMM:   9    -0.117111490371E+04    0.54925E+00   -0.44436E+01  1589   0.741E+00    0.118E+01
RMM:  10    -0.117055195172E+04    0.56295E+00   -0.10414E+00  1658   0.137E+00    0.714E+00
RMM:  11    -0.116923842051E+04    0.13135E+01   -0.49957E+00  1584   0.238E+00    0.263E+00
RMM:  12    -0.116921352127E+04    0.24899E-01   -0.20443E-01  1592   0.494E-01    0.168E+00
RMM:  13    -0.116917580535E+04    0.37716E-01   -0.22227E-01  1592   0.523E-01    0.400E-01
RMM:  14    -0.116917697252E+04   -0.11672E-02   -0.67863E-03  1630   0.105E-01    0.314E-01
RMM:  15    -0.116917672490E+04    0.24762E-03   -0.73509E-04  1389   0.287E-02    0.256E-01
RMM:  16    -0.116917682433E+04   -0.99430E-04   -0.85459E-04  1578   0.309E-02
   1 F= -.11762622E+04 E0= -.11762622E+04  d E =-.117626E+04  mag=    -0.0055
       N       E                     dE             d eps       ncg     rms          rms(c)
DAV:   1    -0.116918025751E+04   -0.35326E-02   -0.80183E-01  1728   0.140E+00    0.688E-01
RMM:   2    -0.116918096970E+04   -0.71220E-03   -0.26502E-02  1626   0.195E-01    0.666E-01
RMM:   3    -0.116917989699E+04    0.10727E-02   -0.15016E-03  1637   0.456E-02    0.628E-01
RMM:   4    -0.116917655425E+04    0.33427E-02   -0.23722E-02  1585   0.165E-01    0.119E-01
RMM:   5    -0.116917618826E+04    0.36599E-03   -0.28774E-04  1206   0.261E-02    0.102E-01
RMM:   6    -0.116917594070E+04    0.24756E-03   -0.60244E-04  1437   0.244E-02    0.589E-02
RMM:   7    -0.116917596914E+04   -0.28441E-04   -0.36215E-05  1007   0.813E-03
   2 F= -.11762619E+04 E0= -.11762619E+04  d E =0.355590E-03  mag=    -0.0003
       N       E                     dE             d eps       ncg     rms          rms(c)
DAV:   1    -0.116917905721E+04   -0.31165E-02   -0.22970E-01  1692   0.747E-01    0.357E-01
RMM:   2    -0.116917916284E+04   -0.10564E-03   -0.69132E-03  1612   0.993E-02    0.343E-01
RMM:   3    -0.116917873795E+04    0.42490E-03   -0.35946E-04  1191   0.236E-02    0.309E-01
RMM:   4    -0.116917780995E+04    0.92799E-03   -0.58022E-03  1586   0.824E-02    0.620E-02
RMM:   5    -0.116917774478E+04    0.65169E-04   -0.73737E-05  1056   0.134E-02
   3 F= -.11762634E+04 E0= -.11762634E+04  d E =-.114582E-02  mag=    -0.0002
       N       E                     dE             d eps       ncg     rms          rms(c)
DAV:   1    -0.116917750206E+04    0.30790E-03   -0.46625E-01  1764   0.108E+00    0.434E-01
RMM:   2    -0.116917829367E+04   -0.79161E-03   -0.12031E-02  1606   0.146E-01    0.438E-01
RMM:   3    -0.116917816027E+04    0.13340E-03   -0.57178E-04  1310   0.308E-02    0.424E-01
RMM:   4    -0.116917746081E+04    0.69946E-03   -0.21024E-03  1586   0.501E-02    0.160E-01
RMM:   5    -0.116917760965E+04   -0.14885E-03   -0.96801E-04  1593   0.339E-02    0.872E-02
RMM:   6    -0.116917746392E+04    0.14573E-03   -0.29126E-04  1154   0.165E-02    0.324E-02
RMM:   7    -0.116917746005E+04    0.38773E-05   -0.29029E-05   996   0.740E-03
   4 F= -.11762631E+04 E0= -.11762631E+04  d E =0.307048E-03  mag=    -0.0000
       N       E                     dE             d eps       ncg     rms          rms(c)
DAV:   1    -0.116917846629E+04   -0.10024E-02   -0.13128E-01  1656   0.575E-01    0.241E-01
RMM:   2    -0.116917865352E+04   -0.18723E-03   -0.32661E-03  1604   0.767E-02    0.241E-01
RMM:   3    -0.116917860019E+04    0.53323E-04   -0.13788E-04  1082   0.164E-02
   5 F= -.11762642E+04 E0= -.11762642E+04  d E =-.844245E-03  mag=     0.0000
