       N       E                     dE             d eps       ncg     rms          rms(c)
DAV:   1     0.529448495592E+04    0.52945E+04   -0.17140E+05  1696   0.954E+02
DAV:   2     0.399413408877E+02   -0.52545E+04   -0.48232E+04  2464   0.223E+02
DAV:   3    -0.119951697478E+04   -0.12395E+04   -0.12305E+04  1984   0.120E+02
DAV:   4    -0.125493256628E+04   -0.55416E+02   -0.55049E+02  1920   0.342E+01
DAV:   5    -0.125651587996E+04   -0.15833E+01   -0.15789E+01  2336   0.557E+00    0.766E+01
RMM:   6    -0.125357038498E+04    0.29455E+01   -0.10086E+02  1748   0.163E+01    0.831E+01
RMM:   7    -0.122947405653E+04    0.24096E+02   -0.14423E+01  1537   0.697E+00    0.583E+01
RMM:   8    -0.121272583429E+04    0.16748E+02   -0.13932E+01  1580   0.475E+00    0.446E+01
RMM:   9    -0.118835418871E+04    0.24372E+02   -0.30192E+01  1666   0.711E+00    0.269E+01
RMM:  10    -0.118086938330E+04    0.74848E+01   -0.12871E+01  1554   0.515E+00    0.197E+01
RMM:  11    -0.117830947686E+04    0.25599E+01   -0.16083E+01  1627   0.544E+00    0.117E+01
RMM:  12    -0.117941126125E+04   -0.11018E+01   -0.37276E+00  1717   0.299E+00    0.907E+00
RMM:  13    -0.117897255139E+04    0.43871E+00   -0.44286E-01  1664   0.121E+00    0.610E+00
RMM:  14    -0.117852601509E+04    0.44654E+00   -0.79477E-01  1536   0.112E+00    0.251E+00
RMM:  15    -0.117852052206E+04    0.54930E-02   -0.22341E-01  1596   0.715E-01    0.151E+00
RMM:  16    -0.117850964913E+04    0.10873E-01   -0.67636E-02  1681   0.405E-01    0.812E-01
RMM:  17    -0.117851166336E+04   -0.20142E-02   -0.15657E-02  1765   0.176E-01    0.809E-01
RMM:  18    -0.117850812347E+04    0.35399E-02   -0.39460E-03  1692   0.922E-02    0.510E-01
RMM:  19    -0.117850890725E+04   -0.78378E-03   -0.25474E-03  1704   0.648E-02    0.438E-01
RMM:  20    -0.117850809359E+04    0.81366E-03   -0.75385E-04  1678   0.403E-02    0.260E-01
RMM:  21    -0.117850789705E+04    0.19654E-03   -0.35708E-04  1556   0.211E-02    0.186E-01
RMM:  22    -0.117850776391E+04    0.13314E-03   -0.27871E-04  1691   0.202E-02    0.857E-02
RMM:  23    -0.117850774677E+04    0.17147E-04   -0.14519E-04  1552   0.160E-02    0.719E-02
RMM:  24    -0.117850773582E+04    0.10947E-04   -0.52457E-05  1621   0.100E-02    0.279E-02
RMM:  25    -0.117850773237E+04    0.34482E-05   -0.12474E-05  1574   0.519E-03    0.192E-02
RMM:  26    -0.117850773030E+04    0.20732E-05   -0.11003E-05  1553   0.423E-03    0.121E-02
RMM:  27    -0.117850772907E+04    0.12299E-05   -0.31668E-06  1147   0.274E-03    0.618E-03
RMM:  28    -0.117850772877E+04    0.29325E-06   -0.13898E-06  1038   0.203E-03
   1 F= -.11856541E+04 E0= -.11856541E+04  d E =-.118565E+04  mag=    -0.0001
       N       E                     dE             d eps       ncg     rms          rms(c)
DAV:   1    -0.117850608934E+04    0.16397E-02   -0.37189E-01  1664   0.104E+00    0.135E-01
RMM:   2    -0.117850694502E+04   -0.85568E-03   -0.10041E-02  1612   0.162E-01    0.129E-01
RMM:   3    -0.117850709448E+04   -0.14946E-03   -0.23287E-03  1918   0.720E-02    0.124E-01
RMM:   4    -0.117850700228E+04    0.92201E-04   -0.29648E-04  1836   0.257E-02    0.112E-01
RMM:   5    -0.117850686419E+04    0.13809E-03   -0.26963E-04  1601   0.206E-02    0.791E-02
RMM:   6    -0.117850687028E+04   -0.60902E-05   -0.72533E-04  1552   0.316E-02    0.438E-02
RMM:   7    -0.117850684087E+04    0.29415E-04   -0.67101E-05  1614   0.151E-02    0.320E-02
RMM:   8    -0.117850682666E+04    0.14207E-04   -0.94467E-05  1560   0.110E-02    0.149E-02
RMM:   9    -0.117850682594E+04    0.72073E-06   -0.79591E-06  1510   0.572E-03
   2 F= -.11856538E+04 E0= -.11856538E+04  d E =0.309242E-03  mag=     0.0000
       N       E                     dE             d eps       ncg     rms          rms(c)
DAV:   1    -0.117850810075E+04   -0.12741E-02   -0.11034E-01  1696   0.562E-01    0.755E-02
RMM:   2    -0.117850824302E+04   -0.14227E-03   -0.19608E-03  1540   0.830E-02    0.709E-02
RMM:   3    -0.117850826293E+04   -0.19912E-04   -0.50964E-04  1887   0.380E-02    0.650E-02
RMM:   4    -0.117850822857E+04    0.34366E-04   -0.81859E-05  1734   0.138E-02    0.580E-02
RMM:   5    -0.117850818789E+04    0.40678E-04   -0.88998E-05  1602   0.120E-02    0.366E-02
RMM:   6    -0.117850818669E+04    0.12006E-05   -0.13509E-04  1562   0.141E-02    0.214E-02
RMM:   7    -0.117850817783E+04    0.88583E-05   -0.13930E-05  1516   0.709E-03    0.132E-02
RMM:   8    -0.117850817837E+04   -0.53902E-06   -0.18169E-05  1536   0.513E-03    0.655E-03
RMM:   9    -0.117850817788E+04    0.48895E-06   -0.23623E-06  1062   0.273E-03
   3 F= -.11856549E+04 E0= -.11856549E+04  d E =-.719130E-03  mag=    -0.0000
       N       E                     dE             d eps       ncg     rms          rms(c)
DAV:   1    -0.117850793828E+04    0.24009E-03   -0.29048E-01  1792   0.885E-01    0.115E-01
RMM:   2    -0.117850819252E+04   -0.25424E-03   -0.41609E-03  1536   0.117E-01    0.103E-01
RMM:   3    -0.117850824568E+04   -0.53156E-04   -0.10769E-03  1831   0.540E-02    0.922E-02
RMM:   4    -0.117850821201E+04    0.33664E-04   -0.17542E-04  1689   0.209E-02    0.758E-02
RMM:   5    -0.117850820337E+04    0.86395E-05   -0.13574E-04  1606   0.162E-02    0.523E-02
RMM:   6    -0.117850823007E+04   -0.26699E-04   -0.14889E-04  1604   0.161E-02    0.251E-02
RMM:   7    -0.117850822862E+04    0.14559E-05   -0.24739E-05  1769   0.794E-03    0.183E-02
RMM:   8    -0.117850822480E+04    0.38187E-05   -0.28085E-05  1538   0.590E-03    0.943E-03
RMM:   9    -0.117850822524E+04   -0.44231E-06   -0.38186E-06  1240   0.350E-03
   4 F= -.11856553E+04 E0= -.11856553E+04  d E =-.428158E-03  mag=     0.0000
       N       E                     dE             d eps       ncg     rms          rms(c)
DAV:   1    -0.117850847263E+04   -0.24783E-03   -0.32374E-02  1664   0.296E-01    0.387E-02
RMM:   2    -0.117850850148E+04   -0.28851E-04   -0.46379E-04  1536   0.393E-02    0.345E-02
RMM:   3    -0.117850850585E+04   -0.43697E-05   -0.11878E-04  1828   0.180E-02    0.307E-02
RMM:   4    -0.117850850067E+04    0.51821E-05   -0.20126E-05  1640   0.713E-03    0.250E-02
RMM:   5    -0.117850849768E+04    0.29928E-05   -0.14874E-05  1562   0.546E-03    0.170E-02
RMM:   6    -0.117850849894E+04   -0.12625E-05   -0.17285E-05  1576   0.554E-03    0.789E-03
RMM:   7    -0.117850849861E+04    0.33226E-06   -0.24907E-06  1080   0.284E-03
   5 F= -.11856554E+04 E0= -.11856554E+04  d E =-.573826E-03  mag=     0.0000
