       N       E                     dE             d eps       ncg     rms          rms(c)
DAV:   1     0.485309008816E+04    0.48531E+04   -0.17035E+05  1872   0.906E+02
DAV:   2    -0.506168096484E+02   -0.49037E+04   -0.44659E+04  2520   0.206E+02
DAV:   3    -0.117374420933E+04   -0.11231E+04   -0.11179E+04  2124   0.109E+02
DAV:   4    -0.121946366154E+04   -0.45719E+02   -0.45509E+02  2016   0.289E+01
DAV:   5    -0.122061618292E+04   -0.11525E+01   -0.11502E+01  2376   0.422E+00    0.597E+01
RMM:   6    -0.120873826521E+04    0.11878E+02   -0.66549E+00  1584   0.301E+00    0.491E+01
RMM:   7    -0.117335971347E+04    0.35379E+02   -0.46069E+01  1584   0.785E+00    0.297E+01
RMM:   8    -0.116217786370E+04    0.11182E+02   -0.16820E+01  1584   0.474E+00    0.218E+01
RMM:   9    -0.116013744375E+04    0.20404E+01   -0.31130E+01  1584   0.630E+00    0.901E+00
RMM:  10    -0.115980855821E+04    0.32889E+00   -0.78759E-01  1622   0.121E+00    0.491E+00
RMM:  11    -0.115933455806E+04    0.47400E+00   -0.10205E+00  1584   0.111E+00    0.207E+00
RMM:  12    -0.115929867709E+04    0.35881E-01   -0.16844E-01  1584   0.453E-01    0.783E-01
RMM:  13    -0.115930697192E+04   -0.82948E-02   -0.15495E-01  1584   0.449E-01    0.713E-01
RMM:  14    -0.115928948151E+04    0.17490E-01   -0.33656E-02  1584   0.207E-01    0.205E-01
RMM:  15    -0.115928919182E+04    0.28969E-03   -0.32074E-03  1598   0.611E-02    0.113E-01
RMM:  16    -0.115928949374E+04   -0.30192E-03   -0.83848E-04  1575   0.335E-02    0.134E-01
RMM:  17    -0.115928942119E+04    0.72553E-04   -0.34628E-04  1236   0.216E-02
   1 F= -.11663990E+04 E0= -.11663990E+04  d E =-.116640E+04  mag=    -0.0014
       N       E                     dE             d eps       ncg     rms          rms(c)
DAV:   1    -0.115928944014E+04    0.53599E-04   -0.52071E-01  1692   0.110E+00    0.213E-01
RMM:   2    -0.115929004699E+04   -0.60685E-03   -0.12803E-02  1584   0.159E-01    0.196E-01
RMM:   3    -0.115928947612E+04    0.57087E-03   -0.80314E-04  1581   0.364E-02    0.169E-01
RMM:   4    -0.115928829982E+04    0.11763E-02   -0.44564E-03  1584   0.726E-02    0.541E-02
RMM:   5    -0.115928829009E+04    0.97282E-05   -0.13009E-04  1059   0.163E-02
   2 F= -.11663981E+04 E0= -.11663981E+04  d E =0.886460E-03  mag=    -0.0006
       N       E                     dE             d eps       ncg     rms          rms(c)
DAV:   1    -0.115929033978E+04   -0.20400E-02   -0.17374E-01  1728   0.632E-01    0.103E-01
RMM:   2    -0.115929046363E+04   -0.12384E-03   -0.30182E-03  1584   0.811E-02    0.946E-02
RMM:   3    -0.115929030822E+04    0.15540E-03   -0.16456E-04  1103   0.182E-02    0.809E-02
RMM:   4    -0.115929002706E+04    0.28116E-03   -0.11877E-03  1584   0.379E-02    0.243E-02
RMM:   5    -0.115929002835E+04   -0.12869E-05   -0.23828E-05  1006   0.759E-03
   3 F= -.11663997E+04 E0= -.11663997E+04  d E =-.708443E-03  mag=    -0.0004
