       N       E                     dE             d eps       ncg     rms          rms(c)
DAV:   1     0.472499676936E+04    0.47250E+04   -0.17951E+05  1888   0.950E+02
DAV:   2    -0.756528437646E+02   -0.48006E+04   -0.43926E+04  2432   0.213E+02
DAV:   3    -0.119772583199E+04   -0.11221E+04   -0.11153E+04  2048   0.112E+02
DAV:   4    -0.124373386395E+04   -0.46008E+02   -0.45698E+02  1920   0.292E+01
DAV:   5    -0.124487195274E+04   -0.11381E+01   -0.11329E+01  2304   0.422E+00    0.817E+01
RMM:   6    -0.123130694371E+04    0.13565E+02   -0.71417E+01  1765   0.101E+01    0.765E+01
RMM:   7    -0.121339470276E+04    0.17912E+02   -0.10479E+01  1583   0.436E+00    0.481E+01
RMM:   8    -0.119748474569E+04    0.15910E+02   -0.12930E+01  1538   0.470E+00    0.374E+01
RMM:   9    -0.117906738525E+04    0.18417E+02   -0.23468E+01  1596   0.625E+00    0.253E+01
RMM:  10    -0.117146055972E+04    0.76068E+01   -0.17026E+01  1552   0.548E+00    0.169E+01
RMM:  11    -0.117211068375E+04   -0.65012E+00   -0.11304E+01  1555   0.452E+00    0.881E+00
RMM:  12    -0.117211311183E+04   -0.24281E-02   -0.12601E+00  1622   0.187E+00    0.658E+00
RMM:  13    -0.117186186105E+04    0.25125E+00   -0.26306E-01  1644   0.830E-01    0.459E+00
RMM:  14    -0.117157808325E+04    0.28378E+00   -0.76333E-01  1551   0.107E+00    0.216E+00
RMM:  15    -0.117153195236E+04    0.46131E-01   -0.15967E-01  1563   0.586E-01    0.814E-01
RMM:  16    -0.117153222146E+04   -0.26910E-03   -0.31702E-02  1691   0.269E-01    0.407E-01
RMM:  17    -0.117153330610E+04   -0.10846E-02   -0.11596E-02  1725   0.155E-01    0.262E-01
RMM:  18    -0.117153341375E+04   -0.10764E-03   -0.26367E-03  1718   0.801E-02    0.154E-01
RMM:  19    -0.117153360545E+04   -0.19171E-03   -0.14107E-03  1826   0.526E-02    0.119E-01
RMM:  20    -0.117153363050E+04   -0.25050E-04   -0.30958E-04  1765   0.274E-02    0.676E-02
RMM:  21    -0.117153366799E+04   -0.37483E-04   -0.10389E-04  1656   0.148E-02    0.476E-02
RMM:  22    -0.117153368799E+04   -0.20005E-04   -0.44531E-05  1572   0.984E-03    0.341E-02
RMM:  23    -0.117153369786E+04   -0.98670E-05   -0.18308E-05  1670   0.700E-03    0.201E-02
RMM:  24    -0.117153370770E+04   -0.98425E-05   -0.13724E-05  1577   0.532E-03    0.135E-02
RMM:  25    -0.117153370906E+04   -0.13581E-05   -0.31780E-06  1191   0.288E-03    0.644E-03
RMM:  26    -0.117153370893E+04    0.12955E-06   -0.24360E-06  1105   0.229E-03
   1 F= -.11785907E+04 E0= -.11785907E+04  d E =-.117859E+04  mag=     1.0001
       N       E                     dE             d eps       ncg     rms          rms(c)
DAV:   1    -0.117153102514E+04    0.26839E-02   -0.48853E-01  1824   0.143E+00    0.209E-01
RMM:   2    -0.117153287189E+04   -0.18467E-02   -0.21630E-02  1768   0.228E-01    0.211E-01
RMM:   3    -0.117153326110E+04   -0.38921E-03   -0.46952E-03  2000   0.975E-02    0.196E-01
RMM:   4    -0.117153314247E+04    0.11864E-03   -0.75049E-04  1967   0.375E-02    0.177E-01
RMM:   5    -0.117153295349E+04    0.18897E-03   -0.20189E-03  1548   0.523E-02    0.823E-02
RMM:   6    -0.117153295773E+04   -0.42377E-05   -0.31200E-04  1705   0.269E-02    0.640E-02
RMM:   7    -0.117153291112E+04    0.46613E-04   -0.11753E-04  1562   0.134E-02    0.372E-02
RMM:   8    -0.117153290687E+04    0.42495E-05   -0.31993E-05  1773   0.750E-03    0.261E-02
RMM:   9    -0.117153290390E+04    0.29710E-05   -0.23068E-05  1636   0.585E-03    0.150E-02
RMM:  10    -0.117153290376E+04    0.13919E-06   -0.12538E-05  1822   0.445E-03    0.979E-03
RMM:  11    -0.117153290318E+04    0.58107E-06   -0.26983E-06  1199   0.224E-03
   2 F= -.11785903E+04 E0= -.11785903E+04  d E =0.394807E-03  mag=     1.0000
       N       E                     dE             d eps       ncg     rms          rms(c)
DAV:   1    -0.117153403046E+04   -0.11267E-02   -0.14589E-01  1728   0.777E-01    0.115E-01
RMM:   2    -0.117153446303E+04   -0.43257E-03   -0.54691E-03  1758   0.120E-01    0.115E-01
RMM:   3    -0.117153454142E+04   -0.78383E-04   -0.10633E-03  1827   0.494E-02    0.106E-01
RMM:   4    -0.117153449411E+04    0.47307E-04   -0.20240E-04  1777   0.204E-02    0.915E-02
RMM:   5    -0.117153443714E+04    0.56974E-04   -0.49451E-04  1557   0.267E-02    0.418E-02
RMM:   6    -0.117153444224E+04   -0.51074E-05   -0.81211E-05  1737   0.136E-02    0.321E-02
RMM:   7    -0.117153443390E+04    0.83479E-05   -0.20660E-05  1570   0.639E-03    0.193E-02
RMM:   8    -0.117153443178E+04    0.21112E-05   -0.13251E-05  1584   0.444E-03    0.134E-02
RMM:   9    -0.117153443109E+04    0.68976E-06   -0.50589E-06  1558   0.299E-03
   3 F= -.11785916E+04 E0= -.11785916E+04  d E =-.907549E-03  mag=     1.0000
       N       E                     dE             d eps       ncg     rms          rms(c)
DAV:   1    -0.117153371948E+04    0.71231E-03   -0.35130E-01  1952   0.127E+00    0.157E-01
RMM:   2    -0.117153492086E+04   -0.12014E-02   -0.14634E-02  1804   0.179E-01    0.131E-01
RMM:   3    -0.117153498699E+04   -0.66131E-04   -0.19876E-03  1800   0.710E-02    0.115E-01
RMM:   4    -0.117153483111E+04    0.15588E-03   -0.68898E-04  1649   0.377E-02    0.676E-02
RMM:   5    -0.117153482170E+04    0.94123E-05   -0.41020E-04  1656   0.267E-02    0.364E-02
RMM:   6    -0.117153483306E+04   -0.11365E-04   -0.73876E-05  1888   0.127E-02    0.301E-02
RMM:   7    -0.117153483465E+04   -0.15844E-05   -0.18005E-05  1631   0.603E-03    0.197E-02
RMM:   8    -0.117153483660E+04   -0.19556E-05   -0.10617E-05  1625   0.426E-03    0.137E-02
RMM:   9    -0.117153483626E+04    0.34626E-06   -0.71823E-06  1567   0.361E-03
   4 F= -.11785922E+04 E0= -.11785922E+04  d E =-.613602E-03  mag=     1.0000
       N       E                     dE             d eps       ncg     rms          rms(c)
DAV:   1    -0.117153493440E+04   -0.97800E-04   -0.31107E-02  1824   0.378E-01    0.461E-02
RMM:   2    -0.117153504090E+04   -0.10650E-03   -0.13042E-03  1806   0.532E-02    0.384E-02
RMM:   3    -0.117153504436E+04   -0.34613E-05   -0.15716E-04  1796   0.207E-02    0.336E-02
RMM:   4    -0.117153502902E+04    0.15340E-04   -0.64137E-05  1643   0.115E-02    0.190E-02
RMM:   5    -0.117153502777E+04    0.12540E-05   -0.28962E-05  1683   0.722E-03    0.112E-02
RMM:   6    -0.117153502866E+04   -0.88946E-06   -0.55828E-06  1391   0.342E-03
   5 F= -.11785924E+04 E0= -.11785924E+04  d E =-.742967E-03  mag=     1.0000
