       N       E                     dE             d eps       ncg     rms          rms(c)
DAV:   1     0.514170067832E+04    0.51417E+04   -0.17233E+05  1872   0.919E+02
DAV:   2     0.751485293442E+02   -0.50666E+04   -0.46187E+04  2592   0.212E+02
DAV:   3    -0.118465315597E+04   -0.12598E+04   -0.12531E+04  2268   0.117E+02
DAV:   4    -0.124407966778E+04   -0.59427E+02   -0.59128E+02  2340   0.336E+01
DAV:   5    -0.124556951561E+04   -0.14898E+01   -0.14851E+01  2376   0.507E+00    0.796E+01
RMM:   6    -0.122673194548E+04    0.18838E+02   -0.96731E+00  2110   0.492E+00    0.616E+01
RMM:   7    -0.119306690861E+04    0.33665E+02   -0.52076E+01  2107   0.115E+01    0.341E+01
RMM:   8    -0.117904821466E+04    0.14019E+02   -0.26270E+01  2072   0.726E+00    0.309E+01
RMM:   9    -0.117661221409E+04    0.24360E+01   -0.58374E+00  2081   0.641E+00    0.214E+01
RMM:  10    -0.117682488725E+04   -0.21267E+00   -0.13307E+01  2098   0.519E+00    0.155E+01
RMM:  11    -0.117731007601E+04   -0.48519E+00   -0.19130E+00  2106   0.481E+00    0.833E+00
RMM:  12    -0.117697069641E+04    0.33938E+00   -0.49630E-01  2089   0.135E+00    0.628E+00
RMM:  13    -0.117647195241E+04    0.49874E+00   -0.12128E+00  2060   0.148E+00    0.325E+00
RMM:  14    -0.117646992644E+04    0.20260E-02   -0.20732E-01  2056   0.173E+00    0.152E+00
RMM:  15    -0.117647070396E+04   -0.77752E-03   -0.37959E-02  2140   0.353E-01    0.951E-01
RMM:  16    -0.117647024831E+04    0.45566E-03   -0.62300E-03  1903   0.182E-01    0.725E-01
RMM:  17    -0.117647049114E+04   -0.24283E-03   -0.49930E-03  1966   0.135E-01    0.492E-01
RMM:  18    -0.117647064096E+04   -0.14982E-03   -0.95248E-04  1209   0.121E-01    0.431E-01
RMM:  19    -0.117647056126E+04    0.79692E-04   -0.46992E-04  1208   0.116E-01
   1 F= -.11837727E+04 E0= -.11837716E+04  d E =-.118377E+04  mag=    -0.9682
       N       E                     dE             d eps       ncg     rms          rms(c)
DAV:   1    -0.117645886716E+04    0.11774E-01   -0.14729E+00  2052   0.227E+00    0.164E+00
RMM:   2    -0.117646377670E+04   -0.49095E-02   -0.59442E-02  2296   0.307E-01    0.165E+00
RMM:   3    -0.117646388627E+04   -0.10957E-03   -0.41276E-03  1343   0.438E-01    0.156E+00
RMM:   4    -0.117646324573E+04    0.64054E-03   -0.16072E-03  1475   0.133E-01    0.109E+00
RMM:   5    -0.117646323760E+04    0.81302E-05   -0.54703E-03  1910   0.188E-01    0.281E-01
RMM:   6    -0.117646329742E+04   -0.59818E-04   -0.69720E-04  1208   0.111E-01
   2 F= -.11837664E+04 E0= -.11837652E+04  d E =0.626732E-02  mag=    -0.9724
       N       E                     dE             d eps       ncg     rms          rms(c)
DAV:   1    -0.117647012101E+04   -0.68834E-02   -0.80381E-01  2088   0.168E+00    0.105E+00
RMM:   2    -0.117647229250E+04   -0.21715E-02   -0.30087E-02  2181   0.220E-01    0.107E+00
RMM:   3    -0.117647230212E+04   -0.96171E-05   -0.25819E-03  1347   0.412E-01    0.999E-01
RMM:   4    -0.117647172456E+04    0.57756E-03   -0.66959E-04  1325   0.987E-02    0.754E-01
RMM:   5    -0.117647154641E+04    0.17815E-03   -0.60776E-03  1996   0.170E-01    0.241E-01
RMM:   6    -0.117647165047E+04   -0.10406E-03   -0.74298E-04  1226   0.876E-02    0.171E-01
RMM:   7    -0.117647161830E+04    0.32171E-04   -0.20166E-04  1134   0.113E-01
   3 F= -.11837740E+04 E0= -.11837729E+04  d E =-.131790E-02  mag=    -0.9771
