       N       E                     dE             d eps       ncg     rms          rms(c)
DAV:   1     0.452582685873E+04    0.45258E+04   -0.17744E+05  1920   0.936E+02
DAV:   2    -0.821444116296E+02   -0.46080E+04   -0.41702E+04  2400   0.206E+02
DAV:   3    -0.118361161575E+04   -0.11015E+04   -0.10969E+04  2016   0.108E+02
DAV:   4    -0.122897603574E+04   -0.45364E+02   -0.45077E+02  1984   0.291E+01
DAV:   5    -0.123013018133E+04   -0.11541E+01   -0.11513E+01  2336   0.430E+00    0.672E+01
RMM:   6    -0.120989861724E+04    0.20232E+02   -0.11070E+01  1576   0.386E+00    0.526E+01
RMM:   7    -0.118388934632E+04    0.26009E+02   -0.34266E+01  1564   0.715E+00    0.346E+01
RMM:   8    -0.116506988616E+04    0.18819E+02   -0.31591E+01  1557   0.736E+00    0.237E+01
RMM:   9    -0.115878590564E+04    0.62840E+01   -0.34024E+01  1611   0.774E+00    0.110E+01
RMM:  10    -0.116099590789E+04   -0.22100E+01   -0.51714E+00  1586   0.353E+00    0.845E+00
RMM:  11    -0.116223619788E+04   -0.12403E+01   -0.29670E+00  1548   0.199E+00    0.487E+00
RMM:  12    -0.116195219253E+04    0.28401E+00   -0.79656E-01  1555   0.116E+00    0.259E+00
RMM:  13    -0.116196660313E+04   -0.14411E-01   -0.48502E-01  1542   0.884E-01    0.109E+00
RMM:  14    -0.116197770999E+04   -0.11107E-01   -0.68909E-02  1565   0.375E-01    0.753E-01
RMM:  15    -0.116197886381E+04   -0.11538E-02   -0.39077E-02  1565   0.246E-01    0.553E-01
RMM:  16    -0.116198096587E+04   -0.21021E-02   -0.68529E-03  1630   0.122E-01    0.505E-01
RMM:  17    -0.116198258279E+04   -0.16169E-02   -0.23737E-03  1592   0.655E-02    0.419E-01
RMM:  18    -0.116198446821E+04   -0.18854E-02   -0.22145E-03  1570   0.568E-02    0.278E-01
RMM:  19    -0.116198638439E+04   -0.19162E-02   -0.24432E-03  1596   0.503E-02    0.104E-01
RMM:  20    -0.116198645795E+04   -0.73559E-04   -0.45549E-04  1673   0.229E-02    0.643E-02
RMM:  21    -0.116198649660E+04   -0.38660E-04   -0.13344E-04  1614   0.135E-02    0.633E-02
RMM:  22    -0.116198660293E+04   -0.10632E-03   -0.13800E-04  1628   0.120E-02    0.480E-02
RMM:  23    -0.116198665190E+04   -0.48970E-04   -0.97757E-05  1660   0.907E-03    0.336E-02
RMM:  24    -0.116198665713E+04   -0.52320E-05   -0.29803E-05  1528   0.488E-03    0.226E-02
RMM:  25    -0.116198665372E+04    0.34093E-05   -0.20556E-05  1534   0.450E-03    0.109E-02
RMM:  26    -0.116198665394E+04   -0.21575E-06   -0.67372E-06  1357   0.311E-03
   1 F= -.11619867E+04 E0= -.11619867E+04  d E =-.116199E+04  mag=     3.9996
       N       E                     dE             d eps       ncg     rms          rms(c)
DAV:   1    -0.116041692550E+04    0.15697E+01   -0.29847E+02  1728   0.256E+01    0.890E+00
RMM:   2    -0.116120393310E+04   -0.78701E+00   -0.82610E+00  1613   0.415E+00    0.758E+00
RMM:   3    -0.116127518909E+04   -0.71256E-01   -0.15674E+00  1701   0.173E+00    0.565E+00
RMM:   4    -0.116104297986E+04    0.23221E+00   -0.98759E-01  1585   0.129E+00    0.261E+00
RMM:   5    -0.116110464854E+04   -0.61669E-01   -0.24698E-01  1666   0.664E-01    0.154E+00
RMM:   6    -0.116123269743E+04   -0.12805E+00   -0.24072E-01  1626   0.469E-01    0.104E+00
RMM:   7    -0.116123619334E+04   -0.34959E-02   -0.35575E-02  1651   0.213E-01    0.742E-01
RMM:   8    -0.116123702465E+04   -0.83131E-03   -0.10622E-02  1730   0.122E-01    0.446E-01
RMM:   9    -0.116124032779E+04   -0.33031E-02   -0.62407E-03  1599   0.879E-02    0.205E-01
RMM:  10    -0.116124015028E+04    0.17751E-03   -0.18960E-03  1630   0.486E-02    0.116E-01
RMM:  11    -0.116124000667E+04    0.14361E-03   -0.57717E-04  1654   0.286E-02    0.846E-02
RMM:  12    -0.116124010178E+04   -0.95111E-04   -0.47217E-04  1787   0.221E-02    0.366E-02
RMM:  13    -0.116124010393E+04   -0.21490E-05   -0.79183E-05  1758   0.110E-02    0.280E-02
RMM:  14    -0.116124011958E+04   -0.15651E-04   -0.75940E-05  1571   0.102E-02    0.171E-02
RMM:  15    -0.116124012868E+04   -0.91034E-05   -0.20793E-05  1545   0.567E-03    0.130E-02
RMM:  16    -0.116124013308E+04   -0.43979E-05   -0.94506E-06  1398   0.343E-03    0.950E-03
RMM:  17    -0.116124013568E+04   -0.25956E-05   -0.49723E-06  1243   0.254E-03    0.573E-03
RMM:  18    -0.116124013586E+04   -0.18562E-06   -0.17562E-06  1076   0.150E-03
   2 F= -.11612401E+04 E0= -.11612401E+04  d E =0.746518E+00  mag=     4.0000
       N       E                     dE             d eps       ncg     rms          rms(c)
DAV:   1    -0.116182205491E+04   -0.58192E+00   -0.13087E+02  1728   0.173E+01    0.575E+00
RMM:   2    -0.116220640360E+04   -0.38435E+00   -0.37928E+00  1634   0.283E+00    0.468E+00
RMM:   3    -0.116225179410E+04   -0.45390E-01   -0.80995E-01  1662   0.122E+00    0.337E+00
RMM:   4    -0.116224482936E+04    0.69647E-02   -0.36354E-01  1607   0.762E-01    0.149E+00
RMM:   5    -0.116224040835E+04    0.44210E-02   -0.78410E-02  1779   0.362E-01    0.101E+00
RMM:   6    -0.116224263128E+04   -0.22229E-02   -0.32083E-02  1687   0.177E-01    0.769E-01
RMM:   7    -0.116224360717E+04   -0.97589E-03   -0.88914E-03  1671   0.113E-01    0.528E-01
RMM:   8    -0.116224481214E+04   -0.12050E-02   -0.39579E-03  1729   0.681E-02    0.404E-01
RMM:   9    -0.116224578297E+04   -0.97082E-03   -0.16558E-03  1590   0.469E-02    0.204E-01
RMM:  10    -0.116224584225E+04   -0.59285E-04   -0.10587E-03  1557   0.384E-02    0.115E-01
RMM:  11    -0.116224599265E+04   -0.15039E-03   -0.97465E-04  1632   0.304E-02    0.569E-02
RMM:  12    -0.116224597600E+04    0.16642E-04   -0.90003E-05  1674   0.129E-02    0.429E-02
RMM:  13    -0.116224599231E+04   -0.16303E-04   -0.10533E-04  1590   0.109E-02    0.330E-02
RMM:  14    -0.116224601252E+04   -0.20210E-04   -0.43385E-05  1615   0.712E-03    0.272E-02
RMM:  15    -0.116224602475E+04   -0.12231E-04   -0.39151E-05  1574   0.659E-03    0.187E-02
RMM:  16    -0.116224602889E+04   -0.41427E-05   -0.12285E-05  1405   0.364E-03    0.119E-02
RMM:  17    -0.116224602964E+04   -0.74507E-06   -0.53865E-06  1274   0.247E-03
   3 F= -.11622460E+04 E0= -.11622460E+04  d E =-.259376E+00  mag=     4.0000
       N       E                     dE             d eps       ncg     rms          rms(c)
DAV:   1    -0.116222501089E+04    0.21018E-01   -0.19000E+01  1632   0.697E+00    0.201E+00
RMM:   2    -0.116225407270E+04   -0.29062E-01   -0.34200E-01  1591   0.932E-01    0.168E+00
RMM:   3    -0.116225320002E+04    0.87268E-03   -0.85652E-02  1645   0.412E-01    0.112E+00
RMM:   4    -0.116224987553E+04    0.33245E-02   -0.38239E-02  1583   0.268E-01    0.478E-01
RMM:   5    -0.116225274127E+04   -0.28657E-02   -0.10121E-02  1708   0.140E-01    0.268E-01
RMM:   6    -0.116225209785E+04    0.64342E-03   -0.31283E-03  1623   0.651E-02    0.194E-01
RMM:   7    -0.116225207432E+04    0.23527E-04   -0.13565E-03  1586   0.453E-02    0.111E-01
RMM:   8    -0.116225201369E+04    0.60633E-04   -0.37803E-04  1650   0.264E-02    0.767E-02
RMM:   9    -0.116225202446E+04   -0.10771E-04   -0.17283E-04  1663   0.169E-02    0.372E-02
RMM:  10    -0.116225202268E+04    0.17817E-05   -0.52384E-05  1708   0.976E-03    0.245E-02
RMM:  11    -0.116225202109E+04    0.15864E-05   -0.33698E-05  1578   0.619E-03    0.161E-02
RMM:  12    -0.116225202124E+04   -0.15511E-06   -0.88509E-06  1549   0.383E-03
   4 F= -.11622520E+04 E0= -.11622520E+04  d E =-.599161E-02  mag=     4.0000
       N       E                     dE             d eps       ncg     rms          rms(c)
DAV:   1    -0.116227709164E+04   -0.25071E-01   -0.43548E+00  1632   0.333E+00    0.967E-01
RMM:   2    -0.116228385321E+04   -0.67616E-02   -0.79366E-02  1587   0.448E-01    0.795E-01
RMM:   3    -0.116228388697E+04   -0.33756E-04   -0.19505E-02  1641   0.197E-01    0.543E-01
RMM:   4    -0.116228349895E+04    0.38801E-03   -0.75350E-03  1582   0.119E-01    0.241E-01
RMM:   5    -0.116228365827E+04   -0.15931E-03   -0.17452E-03  1723   0.596E-02    0.138E-01
RMM:   6    -0.116228346672E+04    0.19155E-03   -0.66469E-04  1608   0.305E-02    0.939E-02
RMM:   7    -0.116228349307E+04   -0.26349E-04   -0.32490E-04  1577   0.222E-02    0.528E-02
RMM:   8    -0.116228348174E+04    0.11324E-04   -0.83158E-05  1661   0.124E-02    0.373E-02
RMM:   9    -0.116228348366E+04   -0.19179E-05   -0.39875E-05  1619   0.773E-03    0.183E-02
RMM:  10    -0.116228348380E+04   -0.13613E-06   -0.96787E-06  1523   0.424E-03
   5 F= -.11622835E+04 E0= -.11622835E+04  d E =-.374542E-01  mag=     4.0000
       N       E                     dE             d eps       ncg     rms          rms(c)
DAV:   1    -0.116229413404E+04   -0.10650E-01   -0.57752E+00  1664   0.393E+00    0.711E-01
RMM:   2    -0.116230067317E+04   -0.65391E-02   -0.95110E-02  1567   0.530E-01    0.613E-01
RMM:   3    -0.116229835015E+04    0.23230E-02   -0.21539E-02  1609   0.227E-01    0.453E-01
RMM:   4    -0.116229584263E+04    0.25075E-02   -0.17453E-02  1578   0.171E-01    0.202E-01
RMM:   5    -0.116229597633E+04   -0.13371E-03   -0.33675E-03  1701   0.837E-02    0.154E-01
RMM:   6    -0.116229564979E+04    0.32655E-03   -0.78608E-04  1602   0.361E-02    0.102E-01
RMM:   7    -0.116229566478E+04   -0.14994E-04   -0.33812E-04  1590   0.236E-02    0.649E-02
RMM:   8    -0.116229565002E+04    0.14757E-04   -0.22911E-04  1569   0.189E-02    0.355E-02
RMM:   9    -0.116229564863E+04    0.13952E-05   -0.13356E-04  1605   0.148E-02    0.244E-02
RMM:  10    -0.116229563978E+04    0.88477E-05   -0.19702E-05  1564   0.627E-03    0.196E-02
RMM:  11    -0.116229563807E+04    0.17097E-05   -0.20672E-05  1539   0.509E-03    0.104E-02
RMM:  12    -0.116229563860E+04   -0.53224E-06   -0.44219E-06  1340   0.289E-03
   6 F= -.11622956E+04 E0= -.11622956E+04  d E =-.121548E-01  mag=     4.0000
       N       E                     dE             d eps       ncg     rms          rms(c)
DAV:   1    -0.116229907974E+04   -0.34417E-02   -0.61282E-01  1664   0.128E+00    0.234E-01
RMM:   2    -0.116229977339E+04   -0.69365E-03   -0.10199E-02  1570   0.173E-01    0.200E-01
RMM:   3    -0.116229953420E+04    0.23919E-03   -0.22757E-03  1609   0.743E-02    0.148E-01
RMM:   4    -0.116229928473E+04    0.24946E-03   -0.19112E-03  1578   0.566E-02    0.652E-02
RMM:   5    -0.116229929800E+04   -0.13270E-04   -0.34163E-04  1711   0.269E-02    0.511E-02
RMM:   6    -0.116229926409E+04    0.33913E-04   -0.83678E-05  1588   0.117E-02    0.338E-02
RMM:   7    -0.116229926715E+04   -0.30597E-05   -0.37053E-05  1573   0.784E-03    0.210E-02
RMM:   8    -0.116229926632E+04    0.82811E-06   -0.24575E-05  1564   0.615E-03    0.115E-02
RMM:   9    -0.116229926637E+04   -0.49688E-07   -0.14312E-05  1579   0.483E-03    0.794E-03
RMM:  10    -0.116229926523E+04    0.11436E-05   -0.23441E-06  1096   0.206E-03    0.610E-03
RMM:  11    -0.116229926545E+04   -0.21869E-06   -0.19990E-06  1077   0.164E-03
   7 F= -.11622993E+04 E0= -.11622993E+04  d E =-.157816E-01  mag=     4.0000
       N       E                     dE             d eps       ncg     rms          rms(c)
DAV:   1    -0.116229549928E+04    0.37659E-02   -0.37927E+00  1600   0.327E+00    0.455E-01
RMM:   2    -0.116230813772E+04   -0.12638E-01   -0.11992E-01  1637   0.493E-01    0.391E-01
RMM:   3    -0.116231062846E+04   -0.24907E-02   -0.29465E-02  1634   0.206E-01    0.338E-01
RMM:   4    -0.116230982688E+04    0.80159E-03   -0.71139E-03  1663   0.108E-01    0.208E-01
RMM:   5    -0.116230941965E+04    0.40722E-03   -0.33919E-03  1625   0.738E-02    0.124E-01
RMM:   6    -0.116230955533E+04   -0.13567E-03   -0.70953E-04  1680   0.377E-02    0.723E-02
RMM:   7    -0.116230957459E+04   -0.19260E-04   -0.25817E-04  1600   0.207E-02    0.472E-02
RMM:   8    -0.116230956359E+04    0.11003E-04   -0.85917E-05  1574   0.120E-02    0.306E-02
RMM:   9    -0.116230956328E+04    0.30996E-06   -0.65136E-05  1576   0.998E-03    0.179E-02
RMM:  10    -0.116230956409E+04   -0.81866E-06   -0.14168E-05  1592   0.516E-03    0.116E-02
RMM:  11    -0.116230956277E+04    0.13265E-05   -0.80039E-06  1476   0.346E-03    0.590E-03
RMM:  12    -0.116230956249E+04    0.27903E-06   -0.22240E-06  1080   0.187E-03
   8 F= -.11623096E+04 E0= -.11623096E+04  d E =-.102970E-01  mag=     4.0000
       N       E                     dE             d eps       ncg     rms          rms(c)
DAV:   1    -0.116230969573E+04   -0.13296E-03   -0.89603E-02  1664   0.502E-01    0.702E-02
RMM:   2    -0.116230991976E+04   -0.22404E-03   -0.26389E-03  1642   0.749E-02    0.603E-02
RMM:   3    -0.116230995525E+04   -0.35487E-04   -0.57127E-04  1627   0.312E-02    0.514E-02
RMM:   4    -0.116230993418E+04    0.21065E-04   -0.17585E-04  1659   0.171E-02    0.293E-02
RMM:   5    -0.116230992881E+04    0.53744E-05   -0.69527E-05  1634   0.107E-02    0.181E-02
RMM:   6    -0.116230993231E+04   -0.35046E-05   -0.14998E-05  1577   0.540E-03    0.105E-02
RMM:   7    -0.116230993327E+04   -0.95304E-06   -0.62363E-06  1429   0.323E-03
   9 F= -.11623099E+04 E0= -.11623099E+04  d E =-.106678E-01  mag=     4.0000
       N       E                     dE             d eps       ncg     rms          rms(c)
DAV:   1    -0.116229031139E+04    0.19621E-01   -0.31911E+00  1568   0.299E+00    0.422E-01
RMM:   2    -0.116231210960E+04   -0.21798E-01   -0.16844E-01  1666   0.490E-01    0.333E-01
RMM:   3    -0.116231873359E+04   -0.66240E-02   -0.42743E-02  1648   0.208E-01    0.293E-01
RMM:   4    -0.116231996780E+04   -0.12342E-02   -0.71186E-03  1780   0.937E-02    0.217E-01
RMM:   5    -0.116231961104E+04    0.35676E-03   -0.20866E-03  1632   0.546E-02    0.134E-01
RMM:   6    -0.116231976713E+04   -0.15609E-03   -0.56611E-04  1654   0.329E-02    0.747E-02
RMM:   7    -0.116231984858E+04   -0.81458E-04   -0.20744E-04  1665   0.187E-02    0.404E-02
RMM:   8    -0.116231984928E+04   -0.69464E-06   -0.62015E-05  1581   0.101E-02    0.231E-02
RMM:   9    -0.116231984326E+04    0.60240E-05   -0.32968E-05  1560   0.713E-03    0.154E-02
RMM:  10    -0.116231984535E+04   -0.20997E-05   -0.13958E-05  1588   0.486E-03    0.816E-03
RMM:  11    -0.116231984500E+04    0.35670E-06   -0.24903E-06  1084   0.232E-03
  10 F= -.11623198E+04 E0= -.11623198E+04  d E =-.991173E-02  mag=     4.0000
       N       E                     dE             d eps       ncg     rms          rms(c)
DAV:   1    -0.116231960269E+04    0.24267E-03   -0.82868E-02  1696   0.480E-01    0.657E-02
RMM:   2    -0.116231995058E+04   -0.34789E-03   -0.37284E-03  1680   0.759E-02    0.528E-02
RMM:   3    -0.116232003518E+04   -0.84596E-04   -0.79859E-04  1649   0.318E-02    0.461E-02
RMM:   4    -0.116232004804E+04   -0.12862E-04   -0.14891E-04  1770   0.145E-02    0.323E-02
RMM:   5    -0.116232004022E+04    0.78214E-05   -0.46243E-05  1610   0.864E-03    0.196E-02
RMM:   6    -0.116232004634E+04   -0.61237E-05   -0.13253E-05  1581   0.515E-03    0.102E-02
RMM:   7    -0.116232004783E+04   -0.14910E-05   -0.49184E-06  1211   0.289E-03    0.600E-03
RMM:   8    -0.116232004774E+04    0.88970E-07   -0.15353E-06  1049   0.163E-03
  11 F= -.11623200E+04 E0= -.11623200E+04  d E =-.101145E-01  mag=     4.0000
       N       E                     dE             d eps       ncg     rms          rms(c)
DAV:   1    -0.116229262536E+04    0.27422E-01   -0.29243E+00  1568   0.284E+00    0.416E-01
RMM:   2    -0.116231789675E+04   -0.25271E-01   -0.18533E-01  1683   0.486E-01    0.319E-01
RMM:   3    -0.116232596281E+04   -0.80661E-02   -0.47426E-02  1653   0.208E-01    0.281E-01
RMM:   4    -0.116232751924E+04   -0.15564E-02   -0.77129E-03  1794   0.926E-02    0.212E-01
RMM:   5    -0.116232733266E+04    0.18658E-03   -0.19669E-03  1651   0.514E-02    0.137E-01
RMM:   6    -0.116232743846E+04   -0.10580E-03   -0.52601E-04  1641   0.312E-02    0.825E-02
RMM:   7    -0.116232753523E+04   -0.96778E-04   -0.20818E-04  1657   0.189E-02    0.418E-02
RMM:   8    -0.116232754225E+04   -0.70193E-05   -0.63056E-05  1572   0.106E-02    0.231E-02
RMM:   9    -0.116232753467E+04    0.75847E-05   -0.28190E-05  1573   0.672E-03    0.162E-02
RMM:  10    -0.116232753686E+04   -0.21880E-05   -0.17059E-05  1556   0.530E-03    0.757E-03
RMM:  11    -0.116232753729E+04   -0.42856E-06   -0.33882E-06  1136   0.256E-03
  12 F= -.11623275E+04 E0= -.11623275E+04  d E =-.748954E-02  mag=     4.0000
       N       E                     dE             d eps       ncg     rms          rms(c)
DAV:   1    -0.116232749347E+04    0.43383E-04   -0.13527E-02  1824   0.191E-01    0.271E-02
RMM:   2    -0.116232755291E+04   -0.59437E-04   -0.62787E-04  1697   0.307E-02    0.214E-02
RMM:   3    -0.116232756859E+04   -0.15677E-04   -0.13642E-04  1657   0.130E-02    0.183E-02
RMM:   4    -0.116232757212E+04   -0.35331E-05   -0.26867E-05  1714   0.598E-03    0.133E-02
RMM:   5    -0.116232757161E+04    0.50975E-06   -0.77376E-06  1538   0.353E-03
  13 F= -.11623276E+04 E0= -.11623276E+04  d E =-.752387E-02  mag=     4.0000
       N       E                     dE             d eps       ncg     rms          rms(c)
DAV:   1    -0.116230952306E+04    0.18049E-01   -0.20196E+00  1568   0.234E+00    0.360E-01
RMM:   2    -0.116232676359E+04   -0.17241E-01   -0.13477E-01  1676   0.413E-01    0.278E-01
RMM:   3    -0.116233167539E+04   -0.49118E-02   -0.33806E-02  1647   0.174E-01    0.246E-01
RMM:   4    -0.116233237559E+04   -0.70021E-03   -0.51477E-03  1780   0.761E-02    0.181E-01
RMM:   5    -0.116233217055E+04    0.20504E-03   -0.12998E-03  1624   0.436E-02    0.119E-01
RMM:   6    -0.116233225333E+04   -0.82783E-04   -0.42656E-04  1593   0.283E-02    0.709E-02
RMM:   7    -0.116233233341E+04   -0.80073E-04   -0.17931E-04  1638   0.172E-02    0.368E-02
RMM:   8    -0.116233233590E+04   -0.24904E-05   -0.48878E-05  1599   0.937E-03    0.193E-02
RMM:   9    -0.116233232858E+04    0.73188E-05   -0.23612E-05  1544   0.609E-03    0.128E-02
RMM:  10    -0.116233233111E+04   -0.25340E-05   -0.10559E-05  1559   0.430E-03    0.585E-03
RMM:  11    -0.116233233144E+04   -0.32460E-06   -0.21348E-06  1071   0.197E-03
  14 F= -.11623323E+04 E0= -.11623323E+04  d E =-.475983E-02  mag=     4.0000
       N       E                     dE             d eps       ncg     rms          rms(c)
DAV:   1    -0.116233233140E+04   -0.29175E-06   -0.11555E-06  1472   0.285E-03    0.265E-03
RMM:   2    -0.116233233157E+04   -0.16772E-06   -0.38705E-07  1016   0.982E-04
  15 F= -.11623323E+04 E0= -.11623323E+04  d E =-.475996E-02  mag=     4.0000
       N       E                     dE             d eps       ncg     rms          rms(c)
DAV:   1    -0.116233035289E+04    0.19785E-02   -0.59269E-01  1568   0.128E+00    0.196E-01
RMM:   2    -0.116233348921E+04   -0.31363E-02   -0.31307E-02  1672   0.213E-01    0.155E-01
RMM:   3    -0.116233427636E+04   -0.78715E-03   -0.77123E-03  1664   0.886E-02    0.138E-01
RMM:   4    -0.116233436311E+04   -0.86753E-04   -0.12171E-03  1726   0.403E-02    0.952E-02
RMM:   5    -0.116233429319E+04    0.69924E-04   -0.41684E-04  1613   0.256E-02    0.591E-02
RMM:   6    -0.116233434979E+04   -0.56602E-04   -0.11277E-04  1671   0.149E-02    0.289E-02
RMM:   7    -0.116233435783E+04   -0.80403E-05   -0.39333E-05  1597   0.793E-03    0.167E-02
RMM:   8    -0.116233435532E+04    0.25033E-05   -0.14577E-05  1536   0.484E-03    0.846E-03
RMM:   9    -0.116233435485E+04    0.47194E-06   -0.81401E-06  1483   0.349E-03
  16 F= -.11623344E+04 E0= -.11623344E+04  d E =-.202328E-02  mag=     4.0000
       N       E                     dE             d eps       ncg     rms          rms(c)
DAV:   1    -0.116233435532E+04    0.29104E-08   -0.50244E-05  1824   0.118E-02    0.385E-03
RMM:   2    -0.116233435563E+04   -0.30545E-06   -0.24632E-06  1081   0.223E-03
  17 F= -.11623344E+04 E0= -.11623344E+04  d E =-.202406E-02  mag=     4.0000
       N       E                     dE             d eps       ncg     rms          rms(c)
DAV:   1    -0.116233397044E+04    0.38488E-03   -0.54743E-01  1568   0.121E+00    0.167E-01
RMM:   2    -0.116233591221E+04   -0.19418E-02   -0.21334E-02  1670   0.187E-01    0.138E-01
RMM:   3    -0.116233640913E+04   -0.49692E-03   -0.52925E-03  1658   0.790E-02    0.123E-01
RMM:   4    -0.116233643217E+04   -0.23039E-04   -0.84548E-04  1679   0.370E-02    0.815E-02
RMM:   5    -0.116233638561E+04    0.46556E-04   -0.36602E-04  1596   0.245E-02    0.487E-02
RMM:   6    -0.116233643626E+04   -0.50647E-04   -0.92468E-05  1693   0.136E-02    0.233E-02
RMM:   7    -0.116233644056E+04   -0.42984E-05   -0.27641E-05  1590   0.671E-03    0.141E-02
RMM:   8    -0.116233643807E+04    0.24811E-05   -0.12187E-05  1491   0.428E-03    0.780E-03
RMM:   9    -0.116233643757E+04    0.50438E-06   -0.71772E-06  1447   0.321E-03
  18 F= -.11623364E+04 E0= -.11623364E+04  d E =-.208194E-02  mag=     4.0000
