       N       E                     dE             d eps       ncg     rms          rms(c)
DAV:   1     0.514883678220E+04    0.51488E+04   -0.17513E+05  1792   0.952E+02
DAV:   2     0.248829370302E+02   -0.51240E+04   -0.47027E+04  2432   0.218E+02
DAV:   3    -0.119332053393E+04   -0.12182E+04   -0.12104E+04  2048   0.117E+02
DAV:   4    -0.124522839903E+04   -0.51908E+02   -0.51571E+02  1952   0.313E+01
DAV:   5    -0.124650585743E+04   -0.12775E+01   -0.12734E+01  2272   0.452E+00    0.816E+01
RMM:   6    -0.123666736622E+04    0.98385E+01   -0.95490E+01  1711   0.106E+01    0.826E+01
RMM:   7    -0.121434001794E+04    0.22327E+02   -0.10988E+01  1604   0.409E+00    0.505E+01
RMM:   8    -0.120123368151E+04    0.13106E+02   -0.78928E+00  1539   0.375E+00    0.398E+01
RMM:   9    -0.117815922520E+04    0.23074E+02   -0.31716E+01  1680   0.710E+00    0.271E+01
RMM:  10    -0.117140100292E+04    0.67582E+01   -0.21955E+01  1680   0.630E+00    0.198E+01
RMM:  11    -0.117089782596E+04    0.50318E+00   -0.26823E+00  1733   0.273E+00    0.149E+01
RMM:  12    -0.117161131367E+04   -0.71349E+00   -0.50902E+00  1549   0.289E+00    0.740E+00
RMM:  13    -0.117148528045E+04    0.12603E+00   -0.58966E-01  1689   0.127E+00    0.513E+00
RMM:  14    -0.117126167574E+04    0.22360E+00   -0.32239E-01  1557   0.807E-01    0.313E+00
RMM:  15    -0.117114485722E+04    0.11682E+00   -0.34621E-01  1558   0.725E-01    0.193E+00
RMM:  16    -0.117115342354E+04   -0.85663E-02   -0.34795E-02  1577   0.302E-01    0.153E+00
RMM:  17    -0.117115728954E+04   -0.38660E-02   -0.21432E-02  1641   0.190E-01    0.691E-01
RMM:  18    -0.117115758196E+04   -0.29242E-03   -0.83344E-03  1584   0.133E-01    0.360E-01
RMM:  19    -0.117115773841E+04   -0.15645E-03   -0.22003E-03  1714   0.698E-02    0.242E-01
RMM:  20    -0.117115772185E+04    0.16551E-04   -0.10998E-03  1594   0.431E-02    0.174E-01
RMM:  21    -0.117115778383E+04   -0.61975E-04   -0.26237E-04  1654   0.251E-02    0.918E-02
RMM:  22    -0.117115775833E+04    0.25498E-04   -0.90453E-05  1607   0.140E-02    0.430E-02
RMM:  23    -0.117115773919E+04    0.19142E-04   -0.67238E-05  1592   0.116E-02    0.254E-02
RMM:  24    -0.117115774030E+04   -0.11098E-05   -0.18425E-05  1604   0.592E-03    0.157E-02
RMM:  25    -0.117115773964E+04    0.65831E-06   -0.79552E-06  1440   0.362E-03
   1 F= -.11782011E+04 E0= -.11782011E+04  d E =-.117820E+04  mag=     1.9997
       N       E                     dE             d eps       ncg     rms          rms(c)
DAV:   1    -0.116911759261E+04    0.20401E+01   -0.14612E+02  2016   0.291E+01    0.566E+00
RMM:   2    -0.117093967223E+04   -0.18221E+01   -0.18291E+01  1749   0.458E+00    0.364E+00
RMM:   3    -0.117128207304E+04   -0.34240E+00   -0.33185E+00  1835   0.175E+00    0.292E+00
RMM:   4    -0.117131813901E+04   -0.36066E-01   -0.36432E-01  1871   0.646E-01    0.235E+00
RMM:   5    -0.117131336923E+04    0.47698E-02   -0.90828E-02  1677   0.350E-01    0.151E+00
RMM:   6    -0.117131360909E+04   -0.23986E-03   -0.38770E-02  1649   0.256E-01    0.904E-01
RMM:   7    -0.117132127522E+04   -0.76661E-02   -0.21197E-02  1637   0.191E-01    0.365E-01
RMM:   8    -0.117131998763E+04    0.12876E-02   -0.39337E-03  1577   0.953E-02    0.233E-01
RMM:   9    -0.117131967756E+04    0.31007E-03   -0.26397E-03  1643   0.633E-02    0.171E-01
RMM:  10    -0.117131954261E+04    0.13495E-03   -0.86922E-04  1771   0.378E-02    0.718E-02
RMM:  11    -0.117131962166E+04   -0.79050E-04   -0.19168E-04  1929   0.164E-02    0.533E-02
RMM:  12    -0.117131962630E+04   -0.46374E-05   -0.11666E-04  1582   0.143E-02    0.245E-02
RMM:  13    -0.117131962668E+04   -0.38206E-06   -0.38511E-05  1698   0.780E-03    0.151E-02
RMM:  14    -0.117131963430E+04   -0.76188E-05   -0.10995E-05  1639   0.445E-03    0.952E-03
RMM:  15    -0.117131963394E+04    0.35888E-06   -0.45156E-06  1299   0.295E-03
   2 F= -.11783658E+04 E0= -.11783658E+04  d E =-.164684E+00  mag=     2.0000
       N       E                     dE             d eps       ncg     rms          rms(c)
DAV:   1    -0.117110190600E+04    0.21773E+00   -0.15770E+01  1920   0.102E+01    0.188E+00
RMM:   2    -0.117134856533E+04   -0.24666E+00   -0.25506E+00  1771   0.157E+00    0.149E+00
RMM:   3    -0.117137251313E+04   -0.23948E-01   -0.24106E-01  1849   0.569E-01    0.105E+00
RMM:   4    -0.117137931748E+04   -0.68043E-02   -0.45945E-02  1846   0.222E-01    0.815E-01
RMM:   5    -0.117137923130E+04    0.86172E-04   -0.89189E-03  1711   0.117E-01    0.524E-01
RMM:   6    -0.117137933467E+04   -0.10337E-03   -0.49096E-03  1661   0.890E-02    0.309E-01
RMM:   7    -0.117138073536E+04   -0.14007E-02   -0.22761E-03  1630   0.661E-02    0.111E-01
RMM:   8    -0.117138066284E+04    0.72522E-04   -0.34096E-04  1646   0.272E-02    0.783E-02
RMM:   9    -0.117138061174E+04    0.51103E-04   -0.36717E-04  1615   0.239E-02    0.385E-02
RMM:  10    -0.117138061792E+04   -0.61842E-05   -0.76893E-05  1740   0.119E-02    0.249E-02
RMM:  11    -0.117138062947E+04   -0.11546E-04   -0.19496E-05  1562   0.619E-03    0.156E-02
RMM:  12    -0.117138063062E+04   -0.11491E-05   -0.18784E-05  1483   0.573E-03    0.774E-03
RMM:  13    -0.117138063079E+04   -0.16770E-06   -0.29586E-06  1160   0.256E-03
   3 F= -.11784260E+04 E0= -.11784260E+04  d E =-.224825E+00  mag=     2.0000
       N       E                     dE             d eps       ncg     rms          rms(c)
DAV:   1    -0.117049713807E+04    0.88349E+00   -0.81968E+01  1920   0.187E+01    0.362E+00
RMM:   2    -0.117139730545E+04   -0.90017E+00   -0.90709E+00  1768   0.291E+00    0.251E+00
RMM:   3    -0.117151896818E+04   -0.12166E+00   -0.10965E+00  1829   0.108E+00    0.189E+00
RMM:   4    -0.117153747382E+04   -0.18506E-01   -0.12719E-01  1797   0.414E-01    0.164E+00
RMM:   5    -0.117153696000E+04    0.51382E-03   -0.23449E-02  1929   0.174E-01    0.127E+00
RMM:   6    -0.117153527259E+04    0.16874E-02   -0.11301E-02  1628   0.129E-01    0.730E-01
RMM:   7    -0.117153861842E+04   -0.33458E-02   -0.79012E-03  1630   0.115E-01    0.261E-01
RMM:   8    -0.117153905051E+04   -0.43209E-03   -0.94191E-04  1765   0.461E-02    0.193E-01
RMM:   9    -0.117153915342E+04   -0.10291E-03   -0.66249E-04  1656   0.305E-02    0.997E-02
RMM:  10    -0.117153896456E+04    0.18886E-03   -0.32614E-04  1620   0.220E-02    0.779E-02
RMM:  11    -0.117153897954E+04   -0.14979E-04   -0.16954E-04  1643   0.163E-02    0.302E-02
RMM:  12    -0.117153897846E+04    0.10742E-05   -0.26189E-05  1670   0.769E-03    0.212E-02
RMM:  13    -0.117153897728E+04    0.11806E-05   -0.10226E-05  1492   0.430E-03    0.127E-02
RMM:  14    -0.117153898007E+04   -0.27927E-05   -0.58479E-06  1318   0.317E-03    0.859E-03
RMM:  15    -0.117153898008E+04   -0.25757E-08   -0.20851E-06  1116   0.192E-03
   4 F= -.11785876E+04 E0= -.11785876E+04  d E =-.161631E+00  mag=     2.0000
       N       E                     dE             d eps       ncg     rms          rms(c)
DAV:   1    -0.117153213587E+04    0.68442E-02   -0.76294E-01  1888   0.184E+00    0.320E-01
RMM:   2    -0.117153961515E+04   -0.74793E-02   -0.78505E-02  1774   0.279E-01    0.269E-01
RMM:   3    -0.117154049478E+04   -0.87963E-03   -0.79225E-03  1827   0.103E-01    0.199E-01
RMM:   4    -0.117154082957E+04   -0.33478E-03   -0.13801E-03  1842   0.402E-02    0.169E-01
RMM:   5    -0.117154088299E+04   -0.53423E-04   -0.24443E-04  1715   0.193E-02    0.109E-01
RMM:   6    -0.117154092616E+04   -0.43166E-04   -0.10446E-04  1635   0.126E-02    0.703E-02
RMM:   7    -0.117154103061E+04   -0.10445E-03   -0.70284E-05  1647   0.110E-02    0.231E-02
RMM:   8    -0.117154103787E+04   -0.72644E-05   -0.93826E-06  1391   0.427E-03    0.171E-02
RMM:   9    -0.117154103987E+04   -0.20013E-05   -0.32656E-06  1151   0.242E-03    0.115E-02
RMM:  10    -0.117154103818E+04    0.16913E-05   -0.33908E-06  1173   0.223E-03    0.685E-03
RMM:  11    -0.117154103830E+04   -0.12388E-06   -0.57880E-07  1014   0.117E-03
   5 F= -.11785895E+04 E0= -.11785895E+04  d E =-.163525E+00  mag=     2.0000
       N       E                     dE             d eps       ncg     rms          rms(c)
DAV:   1    -0.117117110049E+04    0.36994E+00   -0.73670E+01  1600   0.128E+01    0.306E+00
RMM:   2    -0.117154287242E+04   -0.37177E+00   -0.37218E+00  1732   0.201E+00    0.280E+00
RMM:   3    -0.117159838101E+04   -0.55509E-01   -0.53675E-01  1771   0.775E-01    0.235E+00
RMM:   4    -0.117160325496E+04   -0.48739E-02   -0.70920E-02  1761   0.319E-01    0.188E+00
RMM:   5    -0.117159755290E+04    0.57021E-02   -0.25593E-02  1686   0.190E-01    0.127E+00
RMM:   6    -0.117159480715E+04    0.27457E-02   -0.13661E-02  1645   0.144E-01    0.843E-01
RMM:   7    -0.117159701160E+04   -0.22045E-02   -0.46538E-03  1655   0.957E-02    0.412E-01
RMM:   8    -0.117159737214E+04   -0.36053E-03   -0.14384E-03  1718   0.501E-02    0.245E-01
RMM:   9    -0.117159716411E+04    0.20803E-03   -0.44479E-04  1834   0.269E-02    0.175E-01
RMM:  10    -0.117159686372E+04    0.30039E-03   -0.37128E-04  1582   0.222E-02    0.104E-01
RMM:  11    -0.117159671503E+04    0.14869E-03   -0.61405E-04  1619   0.279E-02    0.333E-02
RMM:  12    -0.117159671254E+04    0.24894E-05   -0.36459E-05  1585   0.993E-03    0.205E-02
RMM:  13    -0.117159671633E+04   -0.37834E-05   -0.12560E-05  1615   0.491E-03    0.139E-02
RMM:  14    -0.117159671758E+04   -0.12566E-05   -0.61195E-06  1463   0.325E-03    0.612E-03
RMM:  15    -0.117159671773E+04   -0.15050E-06   -0.17544E-06  1049   0.187E-03
   6 F= -.11786491E+04 E0= -.11786491E+04  d E =-.596552E-01  mag=     2.0000
       N       E                     dE             d eps       ncg     rms          rms(c)
DAV:   1    -0.117157941125E+04    0.17306E-01   -0.90979E+00  1728   0.457E+00    0.108E+00
RMM:   2    -0.117161948685E+04   -0.40076E-01   -0.40059E-01  1715   0.684E-01    0.104E+00
RMM:   3    -0.117162428343E+04   -0.47966E-02   -0.47097E-02  1774   0.258E-01    0.879E-01
RMM:   4    -0.117162511507E+04   -0.83163E-03   -0.98745E-03  1716   0.114E-01    0.697E-01
RMM:   5    -0.117162457057E+04    0.54450E-03   -0.30127E-03  1722   0.683E-02    0.491E-01
RMM:   6    -0.117162438870E+04    0.18186E-03   -0.14257E-03  1716   0.462E-02    0.340E-01
RMM:   7    -0.117162466726E+04   -0.27856E-03   -0.69049E-04  1682   0.305E-02    0.166E-01
RMM:   8    -0.117162476426E+04   -0.97004E-04   -0.16228E-04  1619   0.174E-02    0.767E-02
RMM:   9    -0.117162476087E+04    0.33894E-05   -0.46567E-05  1935   0.856E-03    0.638E-02
RMM:  10    -0.117162472505E+04    0.35820E-04   -0.29635E-05  1570   0.684E-03    0.413E-02
RMM:  11    -0.117162470709E+04    0.17959E-04   -0.70955E-05  1632   0.100E-02    0.121E-02
RMM:  12    -0.117162470702E+04    0.71770E-07   -0.57798E-06  1402   0.380E-03
   7 F= -.11786759E+04 E0= -.11786759E+04  d E =-.864454E-01  mag=     2.0000
       N       E                     dE             d eps       ncg     rms          rms(c)
DAV:   1    -0.117145216514E+04    0.17254E+00   -0.18684E+01  1984   0.942E+00    0.156E+00
RMM:   2    -0.117163902453E+04   -0.18686E+00   -0.18957E+00  1754   0.136E+00    0.102E+00
RMM:   3    -0.117166162926E+04   -0.22605E-01   -0.21328E-01  1760   0.505E-01    0.717E-01
RMM:   4    -0.117166367830E+04   -0.20490E-02   -0.34546E-02  1744   0.212E-01    0.509E-01
RMM:   5    -0.117166313887E+04    0.53943E-03   -0.56673E-03  1850   0.971E-02    0.382E-01
RMM:   6    -0.117166306780E+04    0.71072E-04   -0.28660E-03  1608   0.692E-02    0.225E-01
RMM:   7    -0.117166357792E+04   -0.51013E-03   -0.17820E-03  1584   0.578E-02    0.100E-01
RMM:   8    -0.117166366691E+04   -0.88984E-04   -0.26344E-04  1636   0.262E-02    0.597E-02
RMM:   9    -0.117166366778E+04   -0.87265E-06   -0.19797E-04  1601   0.187E-02    0.343E-02
RMM:  10    -0.117166366681E+04    0.96534E-06   -0.68956E-05  1812   0.109E-02    0.241E-02
RMM:  11    -0.117166367035E+04   -0.35411E-05   -0.11316E-05  1546   0.500E-03    0.154E-02
RMM:  12    -0.117166366861E+04    0.17465E-05   -0.18321E-05  1584   0.533E-03    0.579E-03
RMM:  13    -0.117166366936E+04   -0.75594E-06   -0.28102E-06  1184   0.255E-03
   8 F= -.11787163E+04 E0= -.11787163E+04  d E =-.403629E-01  mag=     2.0000
       N       E                     dE             d eps       ncg     rms          rms(c)
DAV:   1    -0.117165995465E+04    0.37140E-02   -0.51016E-01  1920   0.156E+00    0.256E-01
RMM:   2    -0.117166484983E+04   -0.48952E-02   -0.51074E-02  1750   0.226E-01    0.177E-01
RMM:   3    -0.117166538874E+04   -0.53891E-03   -0.50861E-03  1774   0.830E-02    0.129E-01
RMM:   4    -0.117166550091E+04   -0.11217E-03   -0.94046E-04  1754   0.343E-02    0.935E-02
RMM:   5    -0.117166550000E+04    0.91534E-06   -0.18738E-04  1704   0.178E-02    0.633E-02
RMM:   6    -0.117166552067E+04   -0.20671E-04   -0.11018E-04  1629   0.138E-02    0.390E-02
RMM:   7    -0.117166556304E+04   -0.42373E-04   -0.49367E-05  1655   0.100E-02    0.184E-02
RMM:   8    -0.117166557150E+04   -0.84618E-05   -0.95843E-06  1548   0.484E-03    0.110E-02
RMM:   9    -0.117166557143E+04    0.69980E-07   -0.60664E-06  1472   0.323E-03
   9 F= -.11787180E+04 E0= -.11787180E+04  d E =-.420207E-01  mag=     2.0000
       N       E                     dE             d eps       ncg     rms          rms(c)
DAV:   1    -0.117142387924E+04    0.24169E+00   -0.14097E+01  2080   0.103E+01    0.161E+00
RMM:   2    -0.117165920138E+04   -0.23532E+00   -0.23912E+00  1772   0.138E+00    0.119E+00
RMM:   3    -0.117168612295E+04   -0.26922E-01   -0.23537E-01  1783   0.485E-01    0.894E-01
RMM:   4    -0.117169107251E+04   -0.49496E-02   -0.36434E-02  1729   0.202E-01    0.598E-01
RMM:   5    -0.117169115084E+04   -0.78329E-04   -0.51614E-03  1912   0.870E-02    0.481E-01
RMM:   6    -0.117169157926E+04   -0.42842E-03   -0.14039E-03  1642   0.512E-02    0.320E-01
RMM:   7    -0.117169260931E+04   -0.10301E-02   -0.17421E-03  1609   0.571E-02    0.113E-01
RMM:   8    -0.117169259727E+04    0.12037E-04   -0.25681E-04  1637   0.243E-02    0.562E-02
RMM:   9    -0.117169257131E+04    0.25959E-04   -0.12412E-04  1593   0.148E-02    0.329E-02
RMM:  10    -0.117169256080E+04    0.10515E-04   -0.65825E-05  1647   0.108E-02    0.162E-02
RMM:  11    -0.117169256443E+04   -0.36285E-05   -0.14607E-05  1596   0.572E-03    0.924E-03
RMM:  12    -0.117169256299E+04    0.14330E-05   -0.73933E-06  1511   0.363E-03    0.476E-03
RMM:  13    -0.117169256371E+04   -0.71782E-06   -0.23632E-06  1116   0.214E-03
  10 F= -.11787451E+04 E0= -.11787451E+04  d E =-.271529E-01  mag=     2.0000
       N       E                     dE             d eps       ncg     rms          rms(c)
DAV:   1    -0.117168772035E+04    0.48426E-02   -0.27496E-01  2208   0.144E+00    0.240E-01
RMM:   2    -0.117169245698E+04   -0.47366E-02   -0.50287E-02  1768   0.195E-01    0.176E-01
RMM:   3    -0.117169298039E+04   -0.52341E-03   -0.44894E-03  1783   0.685E-02    0.136E-01
RMM:   4    -0.117169317018E+04   -0.18979E-03   -0.69837E-04  1758   0.272E-02    0.967E-02
RMM:   5    -0.117169320549E+04   -0.35317E-04   -0.11607E-04  1718   0.140E-02    0.680E-02
RMM:   6    -0.117169324256E+04   -0.37064E-04   -0.62130E-05  1618   0.107E-02    0.386E-02
RMM:   7    -0.117169328974E+04   -0.47185E-04   -0.31822E-05  1635   0.815E-03    0.155E-02
RMM:   8    -0.117169329068E+04   -0.93543E-06   -0.51703E-06  1254   0.345E-03
  11 F= -.11787458E+04 E0= -.11787458E+04  d E =-.278430E-01  mag=     2.0000
       N       E                     dE             d eps       ncg     rms          rms(c)
DAV:   1    -0.117165221479E+04    0.41075E-01   -0.57289E+00  1856   0.520E+00    0.770E-01
RMM:   2    -0.117170278099E+04   -0.50566E-01   -0.51981E-01  1749   0.730E-01    0.550E-01
RMM:   3    -0.117170907262E+04   -0.62916E-02   -0.59390E-02  1760   0.271E-01    0.426E-01
RMM:   4    -0.117170980779E+04   -0.73517E-03   -0.88982E-03  1782   0.109E-01    0.319E-01
RMM:   5    -0.117170943246E+04    0.37533E-03   -0.20949E-03  1689   0.609E-02    0.205E-01
RMM:   6    -0.117170953934E+04   -0.10688E-03   -0.10046E-03  1664   0.422E-02    0.132E-01
RMM:   7    -0.117170974654E+04   -0.20720E-03   -0.53754E-04  1610   0.327E-02    0.484E-02
RMM:   8    -0.117170979941E+04   -0.52867E-04   -0.11699E-04  1756   0.156E-02    0.337E-02
RMM:   9    -0.117170978611E+04    0.13305E-04   -0.51622E-05  1609   0.924E-03    0.204E-02
RMM:  10    -0.117170979345E+04   -0.73413E-05   -0.22033E-05  1655   0.654E-03    0.105E-02
RMM:  11    -0.117170979032E+04    0.31290E-05   -0.61131E-06  1408   0.362E-03    0.628E-03
RMM:  12    -0.117170979239E+04   -0.20740E-05   -0.35269E-06  1169   0.265E-03    0.295E-03
RMM:  13    -0.117170979240E+04   -0.40600E-08   -0.70607E-07  1018   0.127E-03
  12 F= -.11787624E+04 E0= -.11787624E+04  d E =-.165968E-01  mag=     2.0000
       N       E                     dE             d eps       ncg     rms          rms(c)
DAV:   1    -0.117170946044E+04    0.33195E-03   -0.43439E-02  2080   0.453E-01    0.674E-02
RMM:   2    -0.117170979893E+04   -0.33849E-03   -0.38692E-03  1748   0.631E-02    0.489E-02
RMM:   3    -0.117170984857E+04   -0.49642E-04   -0.43222E-04  1762   0.234E-02    0.378E-02
RMM:   4    -0.117170986889E+04   -0.20316E-04   -0.75331E-05  1750   0.973E-03    0.288E-02
RMM:   5    -0.117170987397E+04   -0.50846E-05   -0.19451E-05  1599   0.562E-03    0.181E-02
RMM:   6    -0.117170987940E+04   -0.54235E-05   -0.79621E-06  1530   0.379E-03    0.121E-02
RMM:   7    -0.117170988776E+04   -0.83597E-05   -0.47192E-06  1241   0.319E-03    0.440E-03
RMM:   8    -0.117170988915E+04   -0.13901E-05   -0.94828E-07  1026   0.155E-03    0.302E-03
RMM:   9    -0.117170988918E+04   -0.36744E-07   -0.58915E-07   999   0.107E-03
  13 F= -.11787625E+04 E0= -.11787625E+04  d E =-.167050E-01  mag=     2.0000
       N       E                     dE             d eps       ncg     rms          rms(c)
DAV:   1    -0.117167772256E+04    0.32167E-01   -0.55968E+00  1792   0.470E+00    0.733E-01
RMM:   2    -0.117171370738E+04   -0.35985E-01   -0.37252E-01  1753   0.665E-01    0.626E-01
RMM:   3    -0.117171798791E+04   -0.42805E-02   -0.45050E-02  1747   0.252E-01    0.508E-01
RMM:   4    -0.117171817705E+04   -0.18914E-03   -0.68269E-03  1741   0.105E-01    0.403E-01
RMM:   5    -0.117171742853E+04    0.74852E-03   -0.26963E-03  1608   0.703E-02    0.241E-01
RMM:   6    -0.117171737573E+04    0.52803E-04   -0.12197E-03  1601   0.477E-02    0.163E-01
RMM:   7    -0.117171764245E+04   -0.26672E-03   -0.59173E-04  1610   0.347E-02    0.623E-02
RMM:   8    -0.117171768429E+04   -0.41840E-04   -0.14850E-04  1768   0.175E-02    0.439E-02
RMM:   9    -0.117171767012E+04    0.14168E-04   -0.37992E-05  1688   0.821E-03    0.318E-02
RMM:  10    -0.117171766390E+04    0.62233E-05   -0.33762E-05  1571   0.772E-03    0.148E-02
RMM:  11    -0.117171766085E+04    0.30431E-05   -0.12774E-05  1576   0.495E-03    0.846E-03
RMM:  12    -0.117171765980E+04    0.10591E-05   -0.56534E-06  1421   0.325E-03    0.441E-03
RMM:  13    -0.117171765987E+04   -0.78820E-07   -0.99868E-07  1026   0.153E-03
  14 F= -.11787707E+04 E0= -.11787707E+04  d E =-.821397E-02  mag=     2.0000
       N       E                     dE             d eps       ncg     rms          rms(c)
DAV:   1    -0.117171663411E+04    0.10257E-02   -0.27131E-01  1792   0.104E+00    0.162E-01
RMM:   2    -0.117171825505E+04   -0.16209E-02   -0.17431E-02  1747   0.146E-01    0.140E-01
RMM:   3    -0.117171843497E+04   -0.17992E-03   -0.19072E-03  1739   0.549E-02    0.113E-01
RMM:   4    -0.117171845827E+04   -0.23299E-04   -0.33500E-04  1749   0.233E-02    0.883E-02
RMM:   5    -0.117171843521E+04    0.23061E-04   -0.14397E-04  1596   0.163E-02    0.506E-02
RMM:   6    -0.117171844549E+04   -0.10279E-04   -0.57158E-05  1607   0.104E-02    0.350E-02
RMM:   7    -0.117171847245E+04   -0.26963E-04   -0.25798E-05  1619   0.748E-03    0.142E-02
RMM:   8    -0.117171847639E+04   -0.39409E-05   -0.74030E-06  1489   0.391E-03    0.905E-03
RMM:   9    -0.117171847579E+04    0.60015E-06   -0.22004E-06  1063   0.199E-03
  15 F= -.11787714E+04 E0= -.11787714E+04  d E =-.892802E-02  mag=     2.0000
       N       E                     dE             d eps       ncg     rms          rms(c)
DAV:   1    -0.117169774632E+04    0.20730E-01   -0.18655E+00  1920   0.347E+00    0.501E-01
RMM:   2    -0.117172071506E+04   -0.22969E-01   -0.23991E-01  1760   0.475E-01    0.348E-01
RMM:   3    -0.117172338929E+04   -0.26742E-02   -0.24505E-02  1758   0.175E-01    0.270E-01
RMM:   4    -0.117172378271E+04   -0.39341E-03   -0.35368E-03  1763   0.706E-02    0.203E-01
RMM:   5    -0.117172369125E+04    0.91456E-04   -0.81599E-04  1686   0.391E-02    0.138E-01
RMM:   6    -0.117172379491E+04   -0.10366E-03   -0.47912E-04  1603   0.300E-02    0.796E-02
RMM:   7    -0.117172393376E+04   -0.13885E-03   -0.23540E-04  1587   0.222E-02    0.344E-02
RMM:   8    -0.117172394053E+04   -0.67722E-05   -0.42142E-05  1626   0.101E-02    0.198E-02
RMM:   9    -0.117172392977E+04    0.10762E-04   -0.35953E-05  1565   0.783E-03    0.116E-02
RMM:  10    -0.117172393454E+04   -0.47666E-05   -0.66825E-06  1565   0.391E-03    0.689E-03
RMM:  11    -0.117172393427E+04    0.26850E-06   -0.21320E-06  1075   0.211E-03
  16 F= -.11787770E+04 E0= -.11787770E+04  d E =-.557300E-02  mag=     2.0000
       N       E                     dE             d eps       ncg     rms          rms(c)
DAV:   1    -0.117172351385E+04    0.42069E-03   -0.33647E-02  2176   0.465E-01    0.683E-02
RMM:   2    -0.117172388899E+04   -0.37513E-03   -0.44038E-03  1760   0.639E-02    0.475E-02
RMM:   3    -0.117172394761E+04   -0.58626E-04   -0.45233E-04  1753   0.237E-02    0.369E-02
RMM:   4    -0.117172397051E+04   -0.22900E-04   -0.76124E-05  1739   0.980E-03    0.280E-02
RMM:   5    -0.117172397882E+04   -0.83094E-05   -0.17661E-05  1602   0.568E-03    0.190E-02
RMM:   6    -0.117172398600E+04   -0.71770E-05   -0.92034E-06  1527   0.418E-03    0.116E-02
RMM:   7    -0.117172399465E+04   -0.86507E-05   -0.52005E-06  1280   0.332E-03    0.483E-03
RMM:   8    -0.117172399486E+04   -0.20589E-06   -0.84449E-07  1026   0.141E-03
  17 F= -.11787771E+04 E0= -.11787771E+04  d E =-.565128E-02  mag=     2.0000
       N       E                     dE             d eps       ncg     rms          rms(c)
DAV:   1    -0.117171069372E+04    0.13301E-01   -0.15173E+00  1920   0.294E+00    0.401E-01
RMM:   2    -0.117172569813E+04   -0.15004E-01   -0.15741E-01  1751   0.402E-01    0.271E-01
RMM:   3    -0.117172752352E+04   -0.18254E-02   -0.16627E-02  1741   0.151E-01    0.211E-01
RMM:   4    -0.117172786546E+04   -0.34194E-03   -0.27332E-03  1775   0.614E-02    0.158E-01
RMM:   5    -0.117172786049E+04    0.49705E-05   -0.52968E-04  1703   0.319E-02    0.106E-01
RMM:   6    -0.117172793704E+04   -0.76551E-04   -0.28634E-04  1623   0.230E-02    0.638E-02
RMM:   7    -0.117172806430E+04   -0.12726E-03   -0.15618E-04  1592   0.181E-02    0.271E-02
RMM:   8    -0.117172808047E+04   -0.16169E-04   -0.28417E-05  1686   0.827E-03    0.167E-02
RMM:   9    -0.117172807459E+04    0.58803E-05   -0.16721E-05  1548   0.553E-03    0.963E-03
RMM:  10    -0.117172807690E+04   -0.23068E-05   -0.63347E-06  1503   0.355E-03    0.513E-03
RMM:  11    -0.117172807699E+04   -0.94507E-07   -0.98054E-07  1035   0.148E-03
  18 F= -.11787812E+04 E0= -.11787812E+04  d E =-.415985E-02  mag=     2.0000
       N       E                     dE             d eps       ncg     rms          rms(c)
DAV:   1    -0.117172751900E+04    0.55790E-03   -0.55119E-02  2112   0.561E-01    0.773E-02
RMM:   2    -0.117172802289E+04   -0.50389E-03   -0.58291E-03  1750   0.768E-02    0.523E-02
RMM:   3    -0.117172809877E+04   -0.75884E-04   -0.62870E-04  1738   0.288E-02    0.406E-02
RMM:   4    -0.117172813046E+04   -0.31682E-04   -0.11019E-04  1765   0.119E-02    0.308E-02
RMM:   5    -0.117172814394E+04   -0.13481E-04   -0.21833E-05  1621   0.633E-03    0.207E-02
RMM:   6    -0.117172815227E+04   -0.83371E-05   -0.11022E-05  1526   0.467E-03    0.129E-02
RMM:   7    -0.117172816282E+04   -0.10546E-04   -0.66930E-06  1429   0.373E-03    0.552E-03
RMM:   8    -0.117172816356E+04   -0.74216E-06   -0.11522E-06  1042   0.165E-03
  19 F= -.11787813E+04 E0= -.11787813E+04  d E =-.426318E-02  mag=     2.0000
       N       E                     dE             d eps       ncg     rms          rms(c)
DAV:   1    -0.117172484646E+04    0.33164E-02   -0.12174E+00  1664   0.210E+00    0.304E-01
RMM:   2    -0.117173052147E+04   -0.56750E-02   -0.60115E-02  1731   0.294E-01    0.262E-01
RMM:   3    -0.117173126428E+04   -0.74281E-03   -0.79898E-03  1743   0.115E-01    0.217E-01
RMM:   4    -0.117173135506E+04   -0.90782E-04   -0.13287E-03  1779   0.478E-02    0.172E-01
RMM:   5    -0.117173132279E+04    0.32266E-04   -0.54701E-04  1610   0.312E-02    0.999E-02
RMM:   6    -0.117173137312E+04   -0.50323E-04   -0.22391E-04  1633   0.199E-02    0.679E-02
RMM:   7    -0.117173146871E+04   -0.95595E-04   -0.80821E-05  1629   0.131E-02    0.261E-02
RMM:   8    -0.117173148236E+04   -0.13650E-04   -0.24169E-05  1672   0.699E-03    0.171E-02
RMM:   9    -0.117173147694E+04    0.54223E-05   -0.10993E-05  1518   0.433E-03    0.105E-02
RMM:  10    -0.117173147549E+04    0.14467E-05   -0.77910E-06  1467   0.365E-03    0.446E-03
RMM:  11    -0.117173147530E+04    0.19015E-06   -0.17517E-06  1054   0.187E-03
  20 F= -.11787848E+04 E0= -.11787848E+04  d E =-.346951E-02  mag=     2.0000
       N       E                     dE             d eps       ncg     rms          rms(c)
DAV:   1    -0.117173096434E+04    0.51115E-03   -0.13566E-01  1760   0.702E-01    0.101E-01
RMM:   2    -0.117173155309E+04   -0.58874E-03   -0.67373E-03  1732   0.982E-02    0.886E-02
RMM:   3    -0.117173163565E+04   -0.82567E-04   -0.90355E-04  1740   0.385E-02    0.738E-02
RMM:   4    -0.117173166528E+04   -0.29628E-04   -0.15987E-04  1778   0.163E-02    0.593E-02
RMM:   5    -0.117173168117E+04   -0.15890E-04   -0.63143E-05  1593   0.107E-02    0.353E-02
RMM:   6    -0.117173169363E+04   -0.12459E-04   -0.26311E-05  1590   0.681E-03    0.245E-02
RMM:   7    -0.117173170691E+04   -0.13274E-04   -0.93680E-06  1563   0.445E-03    0.101E-02
RMM:   8    -0.117173170890E+04   -0.19993E-05   -0.31450E-06  1144   0.250E-03    0.598E-03
RMM:   9    -0.117173170833E+04    0.57045E-06   -0.12072E-06  1024   0.150E-03
  21 F= -.11787851E+04 E0= -.11787851E+04  d E =-.375748E-02  mag=     2.0000
       N       E                     dE             d eps       ncg     rms          rms(c)
DAV:   1    -0.117172681384E+04    0.48951E-02   -0.82666E-01  1824   0.206E+00    0.274E-01
RMM:   2    -0.117173296552E+04   -0.61517E-02   -0.66213E-02  1746   0.283E-01    0.193E-01
RMM:   3    -0.117173370019E+04   -0.73467E-03   -0.74258E-03  1739   0.110E-01    0.154E-01
RMM:   4    -0.117173379873E+04   -0.98545E-04   -0.13272E-03  1768   0.461E-02    0.119E-01
RMM:   5    -0.117173377937E+04    0.19361E-04   -0.37873E-04  1634   0.268E-02    0.754E-02
RMM:   6    -0.117173382363E+04   -0.44258E-04   -0.21053E-04  1605   0.196E-02    0.446E-02
RMM:   7    -0.117173390196E+04   -0.78324E-04   -0.88204E-05  1616   0.136E-02    0.221E-02
RMM:   8    -0.117173391245E+04   -0.10496E-04   -0.17940E-05  1639   0.659E-03    0.131E-02
RMM:   9    -0.117173391114E+04    0.13098E-05   -0.12993E-05  1523   0.464E-03    0.742E-03
RMM:  10    -0.117173391191E+04   -0.76803E-06   -0.46859E-06  1400   0.296E-03
  22 F= -.11787874E+04 E0= -.11787874E+04  d E =-.234138E-02  mag=     2.0000
       N       E                     dE             d eps       ncg     rms          rms(c)
DAV:   1    -0.117173374306E+04    0.16808E-03   -0.23480E-02  2048   0.348E-01    0.469E-02
RMM:   2    -0.117173389760E+04   -0.15453E-03   -0.18988E-03  1746   0.476E-02    0.327E-02
RMM:   3    -0.117173392573E+04   -0.28127E-04   -0.21737E-04  1738   0.184E-02    0.261E-02
RMM:   4    -0.117173393907E+04   -0.13340E-04   -0.41467E-05  1748   0.787E-03    0.204E-02
RMM:   5    -0.117173394310E+04   -0.40377E-05   -0.11377E-05  1555   0.457E-03    0.131E-02
RMM:   6    -0.117173394702E+04   -0.39203E-05   -0.59895E-06  1465   0.331E-03    0.795E-03
RMM:   7    -0.117173395015E+04   -0.31303E-05   -0.24705E-06  1107   0.226E-03    0.398E-03
RMM:   8    -0.117173395058E+04   -0.42980E-06   -0.54549E-07  1007   0.116E-03
  23 F= -.11787875E+04 E0= -.11787875E+04  d E =-.240438E-02  mag=     2.0000
       N       E                     dE             d eps       ncg     rms          rms(c)
DAV:   1    -0.117172776847E+04    0.61817E-02   -0.83374E-01  1792   0.214E+00    0.288E-01
RMM:   2    -0.117173454933E+04   -0.67809E-02   -0.72945E-02  1747   0.290E-01    0.205E-01
RMM:   3    -0.117173538232E+04   -0.83299E-03   -0.78540E-03  1738   0.111E-01    0.164E-01
RMM:   4    -0.117173550504E+04   -0.12272E-03   -0.14125E-03  1757   0.470E-02    0.123E-01
RMM:   5    -0.117173550403E+04    0.10065E-05   -0.32806E-04  1667   0.255E-02    0.816E-02
RMM:   6    -0.117173557980E+04   -0.75769E-04   -0.19858E-04  1599   0.194E-02    0.448E-02
RMM:   7    -0.117173565969E+04   -0.79886E-04   -0.74407E-05  1640   0.126E-02    0.228E-02
RMM:   8    -0.117173566100E+04   -0.13155E-05   -0.16383E-05  1603   0.615E-03    0.124E-02
RMM:   9    -0.117173565868E+04    0.23276E-05   -0.13164E-05  1520   0.470E-03    0.716E-03
RMM:  10    -0.117173565967E+04   -0.98993E-06   -0.41300E-06  1331   0.277E-03
  24 F= -.11787893E+04 E0= -.11787893E+04  d E =-.176125E-02  mag=     2.0000
       N       E                     dE             d eps       ncg     rms          rms(c)
DAV:   1    -0.117173561769E+04    0.40982E-04   -0.52717E-03  2016   0.170E-01    0.233E-02
RMM:   2    -0.117173565611E+04   -0.38416E-04   -0.45891E-04  1751   0.228E-02    0.162E-02
RMM:   3    -0.117173566281E+04   -0.67039E-05   -0.51075E-05  1657   0.879E-03    0.130E-02
RMM:   4    -0.117173566586E+04   -0.30441E-05   -0.92523E-06  1327   0.374E-03    0.975E-03
RMM:   5    -0.117173566681E+04   -0.95065E-06   -0.23527E-06  1109   0.207E-03
  25 F= -.11787893E+04 E0= -.11787893E+04  d E =-.177298E-02  mag=     2.0000
       N       E                     dE             d eps       ncg     rms          rms(c)
DAV:   1    -0.117173521442E+04    0.45143E-03   -0.41156E-01  1696   0.118E+00    0.159E-01
RMM:   2    -0.117173643087E+04   -0.12164E-02   -0.14160E-02  1718   0.165E-01    0.133E-01
RMM:   3    -0.117173658699E+04   -0.15612E-03   -0.19967E-03  1709   0.658E-02    0.111E-01
RMM:   4    -0.117173658560E+04    0.13886E-05   -0.42671E-04  1712   0.300E-02    0.779E-02
RMM:   5    -0.117173659900E+04   -0.13398E-04   -0.21078E-04  1635   0.194E-02    0.463E-02
RMM:   6    -0.117173663299E+04   -0.33987E-04   -0.84751E-05  1658   0.123E-02    0.282E-02
RMM:   7    -0.117173664662E+04   -0.13628E-04   -0.18076E-05  1641   0.651E-03    0.131E-02
RMM:   8    -0.117173664781E+04   -0.11925E-05   -0.89237E-06  1523   0.400E-03    0.738E-03
RMM:   9    -0.117173664659E+04    0.12140E-05   -0.60063E-06  1441   0.308E-03    0.449E-03
RMM:  10    -0.117173664636E+04    0.23491E-06   -0.17344E-06  1059   0.183E-03
  26 F= -.11787903E+04 E0= -.11787903E+04  d E =-.997388E-03  mag=     2.0000
