       N       E                     dE             d eps       ncg     rms          rms(c)
DAV:   1     0.500170212254E+04    0.50017E+04   -0.16889E+05  1728   0.933E+02
DAV:   2    -0.285008186297E+02   -0.50302E+04   -0.45777E+04  2464   0.218E+02
DAV:   3    -0.119556762408E+04   -0.11671E+04   -0.11579E+04  2048   0.115E+02
DAV:   4    -0.124577939525E+04   -0.50212E+02   -0.49912E+02  1952   0.319E+01
DAV:   5    -0.124724363969E+04   -0.14642E+01   -0.14613E+01  2336   0.538E+00    0.758E+01
RMM:   6    -0.123436234121E+04    0.12881E+02   -0.75160E+01  1615   0.126E+01    0.733E+01
RMM:   7    -0.121293204759E+04    0.21430E+02   -0.12504E+01  1538   0.548E+00    0.463E+01
RMM:   8    -0.119871986524E+04    0.14212E+02   -0.93234E+00  1538   0.435E+00    0.379E+01
RMM:   9    -0.117576741041E+04    0.22952E+02   -0.33696E+01  1670   0.719E+00    0.250E+01
RMM:  10    -0.116826146532E+04    0.75059E+01   -0.16702E+01  1561   0.564E+00    0.170E+01
RMM:  11    -0.116916287252E+04   -0.90141E+00   -0.11103E+01  1574   0.473E+00    0.854E+00
RMM:  12    -0.116944405991E+04   -0.28119E+00   -0.19253E+00  1755   0.234E+00    0.688E+00
RMM:  13    -0.116885446029E+04    0.58960E+00   -0.85686E-01  1536   0.127E+00    0.366E+00
RMM:  14    -0.116870607175E+04    0.14839E+00   -0.41648E-01  1536   0.891E-01    0.185E+00
RMM:  15    -0.116867704604E+04    0.29026E-01   -0.15844E-01  1564   0.616E-01    0.599E-01
RMM:  16    -0.116868145209E+04   -0.44061E-02   -0.35477E-02  1762   0.290E-01    0.418E-01
RMM:  17    -0.116868182297E+04   -0.37088E-03   -0.55996E-03  1570   0.128E-01    0.244E-01
RMM:  18    -0.116868218058E+04   -0.35761E-03   -0.30183E-03  1558   0.790E-02    0.236E-01
RMM:  19    -0.116868195205E+04    0.22853E-03   -0.14504E-03  1660   0.664E-02    0.876E-02
RMM:  20    -0.116868202653E+04   -0.74475E-04   -0.46559E-04  1633   0.292E-02    0.669E-02
RMM:  21    -0.116868205677E+04   -0.30239E-04   -0.14022E-04  1585   0.174E-02    0.563E-02
RMM:  22    -0.116868207602E+04   -0.19252E-04   -0.95369E-05  1550   0.139E-02    0.284E-02
RMM:  23    -0.116868207385E+04    0.21691E-05   -0.24928E-05  1641   0.757E-03    0.269E-02
RMM:  24    -0.116868207914E+04   -0.52902E-05   -0.72586E-06  1452   0.433E-03    0.124E-02
RMM:  25    -0.116868207971E+04   -0.56760E-06   -0.31207E-06  1126   0.255E-03
   1 F= -.11757487E+04 E0= -.11757487E+04  d E =-.117575E+04  mag=     1.0001
