       N       E                     dE             d eps       ncg     rms          rms(c)
DAV:   1     0.488381249876E+04    0.48838E+04   -0.17295E+05  1792   0.942E+02
DAV:   2    -0.415061522769E+02   -0.49253E+04   -0.44969E+04  2432   0.218E+02
DAV:   3    -0.120216769032E+04   -0.11607E+04   -0.11512E+04  2016   0.115E+02
DAV:   4    -0.125182947340E+04   -0.49662E+02   -0.49343E+02  1984   0.319E+01
DAV:   5    -0.125323828236E+04   -0.14088E+01   -0.14040E+01  2240   0.520E+00    0.772E+01
RMM:   6    -0.125210393848E+04    0.11343E+01   -0.10350E+02  1746   0.163E+01    0.856E+01
RMM:   7    -0.122867315779E+04    0.23431E+02   -0.17021E+01  1541   0.710E+00    0.650E+01
RMM:   8    -0.122257816038E+04    0.60950E+01   -0.20450E+01  1576   0.526E+00    0.580E+01
RMM:   9    -0.118073763575E+04    0.41841E+02   -0.47594E+01  1707   0.903E+00    0.282E+01
RMM:  10    -0.117844050349E+04    0.22971E+01   -0.38455E+00  1672   0.335E+00    0.234E+01
RMM:  11    -0.117596203572E+04    0.24785E+01   -0.36226E+00  1544   0.260E+00    0.193E+01
RMM:  12    -0.117509486973E+04    0.86717E+00   -0.17456E+01  1820   0.516E+00    0.921E+00
RMM:  13    -0.117501219538E+04    0.82674E-01   -0.79271E-01  1635   0.163E+00    0.774E+00
RMM:  14    -0.117475226942E+04    0.25993E+00   -0.75005E-01  1582   0.121E+00    0.519E+00
RMM:  15    -0.117450852166E+04    0.24375E+00   -0.52966E-01  1550   0.954E-01    0.261E+00
RMM:  16    -0.117448507762E+04    0.23444E-01   -0.17062E-01  1706   0.575E-01    0.202E+00
RMM:  17    -0.117448234512E+04    0.27325E-02   -0.16314E-02  1739   0.205E-01    0.189E+00
RMM:  18    -0.117448055945E+04    0.17857E-02   -0.59925E-03  1551   0.102E-01    0.171E+00
RMM:  19    -0.117446496434E+04    0.15595E-01   -0.31354E-02  1664   0.205E-01    0.839E-01
RMM:  20    -0.117446257358E+04    0.23908E-02   -0.30964E-03  1698   0.840E-02    0.742E-01
RMM:  21    -0.117445804718E+04    0.45264E-02   -0.26288E-03  1607   0.594E-02    0.518E-01
RMM:  22    -0.117445577129E+04    0.22759E-02   -0.28940E-03  1673   0.614E-02    0.310E-01
RMM:  23    -0.117445499074E+04    0.78056E-03   -0.10234E-03  1755   0.390E-02    0.203E-01
RMM:  24    -0.117445474384E+04    0.24690E-03   -0.21765E-04  1964   0.184E-02    0.166E-01
RMM:  25    -0.117445448817E+04    0.25567E-03   -0.21113E-04  1644   0.145E-02    0.103E-01
RMM:  26    -0.117445441284E+04    0.75331E-04   -0.10926E-04  1624   0.130E-02    0.557E-02
RMM:  27    -0.117445439760E+04    0.15238E-04   -0.80892E-05  1630   0.114E-02    0.336E-02
RMM:  28    -0.117445439305E+04    0.45481E-05   -0.37494E-05  1670   0.730E-03    0.153E-02
RMM:  29    -0.117445439393E+04   -0.87751E-06   -0.97034E-06  1480   0.402E-03
   1 F= -.11815531E+04 E0= -.11815531E+04  d E =-.118155E+04  mag=    -0.9999
       N       E                     dE             d eps       ncg     rms          rms(c)
DAV:   1    -0.117445278180E+04    0.16112E-02   -0.26521E-01  1664   0.869E-01    0.123E-01
RMM:   2    -0.117445341677E+04   -0.63496E-03   -0.74129E-03  1579   0.134E-01    0.112E-01
RMM:   3    -0.117445350419E+04   -0.87424E-04   -0.16934E-03  1914   0.604E-02    0.105E-01
RMM:   4    -0.117445338520E+04    0.11900E-03   -0.25890E-04  1716   0.243E-02    0.799E-02
RMM:   5    -0.117445331252E+04    0.72672E-04   -0.50289E-04  1565   0.277E-02    0.388E-02
RMM:   6    -0.117445331270E+04   -0.17475E-06   -0.10025E-04  1875   0.151E-02    0.310E-02
RMM:   7    -0.117445330817E+04    0.45320E-05   -0.12834E-05  1576   0.551E-03    0.217E-02
RMM:   8    -0.117445330621E+04    0.19621E-05   -0.19844E-05  1553   0.529E-03    0.113E-02
RMM:   9    -0.117445330565E+04    0.55608E-06   -0.83370E-06  1511   0.391E-03
   2 F= -.11815525E+04 E0= -.11815525E+04  d E =0.572487E-03  mag=    -1.0000
       N       E                     dE             d eps       ncg     rms          rms(c)
DAV:   1    -0.117445455595E+04   -0.12497E-02   -0.95974E-02  1664   0.520E-01    0.743E-02
RMM:   2    -0.117445470174E+04   -0.14579E-03   -0.18829E-03  1541   0.761E-02    0.662E-02
RMM:   3    -0.117445471137E+04   -0.96245E-05   -0.46536E-04  1880   0.345E-02    0.587E-02
RMM:   4    -0.117445466295E+04    0.48421E-04   -0.11853E-04  1617   0.162E-02    0.410E-02
RMM:   5    -0.117445465029E+04    0.12659E-04   -0.83037E-05  1650   0.126E-02    0.262E-02
RMM:   6    -0.117445464937E+04    0.91488E-06   -0.27964E-05  1772   0.745E-03    0.198E-02
RMM:   7    -0.117445464603E+04    0.33369E-05   -0.75815E-06  1487   0.402E-03    0.121E-02
RMM:   8    -0.117445464698E+04   -0.94987E-06   -0.77187E-06  1529   0.384E-03
   3 F= -.11815535E+04 E0= -.11815535E+04  d E =-.458694E-03  mag=    -1.0000
       N       E                     dE             d eps       ncg     rms          rms(c)
DAV:   1    -0.117445470699E+04   -0.60951E-04   -0.15948E-01  1792   0.654E-01    0.867E-02
RMM:   2    -0.117445486796E+04   -0.16097E-03   -0.21053E-03  1538   0.845E-02    0.767E-02
RMM:   3    -0.117445490396E+04   -0.36003E-04   -0.59351E-04  1831   0.388E-02    0.681E-02
RMM:   4    -0.117445488569E+04    0.18272E-04   -0.85889E-05  1672   0.149E-02    0.552E-02
RMM:   5    -0.117445487279E+04    0.12904E-04   -0.65161E-05  1567   0.113E-02    0.367E-02
RMM:   6    -0.117445487457E+04   -0.17865E-05   -0.53320E-05  1629   0.101E-02    0.211E-02
RMM:   7    -0.117445487798E+04   -0.34096E-05   -0.15203E-05  1581   0.570E-03    0.115E-02
RMM:   8    -0.117445487887E+04   -0.89024E-06   -0.34788E-06  1130   0.310E-03
   4 F= -.11815541E+04 E0= -.11815541E+04  d E =-.618766E-03  mag=    -1.0000
       N       E                     dE             d eps       ncg     rms          rms(c)
DAV:   1    -0.117445487499E+04    0.29953E-05   -0.19923E-05  1856   0.787E-03    0.454E-03
RMM:   2    -0.117445487518E+04   -0.18883E-06   -0.11615E-06   972   0.184E-03
   5 F= -.11815541E+04 E0= -.11815541E+04  d E =-.618636E-03  mag=    -1.0000
       N       E                     dE             d eps       ncg     rms          rms(c)
DAV:   1    -0.117445501494E+04   -0.13995E-03   -0.98079E-02  1664   0.506E-01    0.658E-02
RMM:   2    -0.117445512740E+04   -0.11246E-03   -0.14234E-03  1536   0.685E-02    0.622E-02
RMM:   3    -0.117445515541E+04   -0.28008E-04   -0.38159E-04  1842   0.313E-02    0.565E-02
RMM:   4    -0.117445514946E+04    0.59438E-05   -0.55393E-05  1746   0.114E-02    0.503E-02
RMM:   5    -0.117445513991E+04    0.95511E-05   -0.28063E-05  1567   0.740E-03    0.368E-02
RMM:   6    -0.117445514245E+04   -0.25386E-05   -0.73167E-05  1598   0.106E-02    0.178E-02
RMM:   7    -0.117445514349E+04   -0.10347E-05   -0.95433E-06  1583   0.502E-03    0.126E-02
RMM:   8    -0.117445514355E+04   -0.65222E-07   -0.38948E-06  1211   0.306E-03
   6 F= -.11815546E+04 E0= -.11815546E+04  d E =-.464263E-03  mag=    -1.0000
       N       E                     dE             d eps       ncg     rms          rms(c)
DAV:   1    -0.117445511905E+04    0.24435E-04   -0.33007E-03  1664   0.928E-02    0.129E-02
RMM:   2    -0.117445512299E+04   -0.39390E-05   -0.48464E-05  1536   0.126E-02    0.127E-02
RMM:   3    -0.117445512409E+04   -0.10979E-05   -0.12750E-05  1533   0.578E-03    0.116E-02
RMM:   4    -0.117445512423E+04   -0.14276E-06   -0.17300E-06  1049   0.283E-03
   7 F= -.11815546E+04 E0= -.11815546E+04  d E =-.480844E-03  mag=    -1.0000
       N       E                     dE             d eps       ncg     rms          rms(c)
DAV:   1    -0.117445532528E+04   -0.20120E-03   -0.87656E-02  1664   0.473E-01    0.613E-02
RMM:   2    -0.117445542296E+04   -0.97673E-04   -0.12487E-03  1536   0.639E-02    0.620E-02
RMM:   3    -0.117445545024E+04   -0.27279E-04   -0.34198E-04  1824   0.290E-02    0.576E-02
RMM:   4    -0.117445544700E+04    0.32339E-05   -0.46147E-05  1747   0.105E-02    0.536E-02
RMM:   5    -0.117445543907E+04    0.79348E-05   -0.17889E-05  1560   0.617E-03    0.427E-02
RMM:   6    -0.117445544501E+04   -0.59414E-05   -0.96084E-05  1702   0.118E-02    0.207E-02
RMM:   7    -0.117445544389E+04    0.11198E-05   -0.78047E-06  1536   0.470E-03    0.166E-02
RMM:   8    -0.117445544364E+04    0.24956E-06   -0.49341E-06  1298   0.308E-03
   8 F= -.11815551E+04 E0= -.11815551E+04  d E =-.474852E-03  mag=    -1.0000
       N       E                     dE             d eps       ncg     rms          rms(c)
DAV:   1    -0.117445542079E+04    0.23097E-04   -0.19893E-02  1664   0.225E-01    0.293E-02
RMM:   2    -0.117445544433E+04   -0.23536E-04   -0.28715E-04  1536   0.305E-02    0.307E-02
RMM:   3    -0.117445545111E+04   -0.67833E-05   -0.78226E-05  1811   0.139E-02    0.275E-02
RMM:   4    -0.117445545124E+04   -0.12684E-06   -0.11155E-05  1435   0.522E-03    0.254E-02
RMM:   5    -0.117445545079E+04    0.44458E-06   -0.29389E-06  1125   0.273E-03
   9 F= -.11815552E+04 E0= -.11815552E+04  d E =-.556203E-03  mag=    -1.0000
       N       E                     dE             d eps       ncg     rms          rms(c)
DAV:   1    -0.117445509562E+04    0.35562E-03   -0.78152E-02  1664   0.446E-01    0.602E-02
RMM:   2    -0.117445517558E+04   -0.79964E-04   -0.10479E-03  1538   0.584E-02    0.623E-02
RMM:   3    -0.117445519942E+04   -0.23836E-04   -0.29535E-04  1817   0.266E-02    0.570E-02
RMM:   4    -0.117445519782E+04    0.15920E-05   -0.40591E-05  1730   0.989E-03    0.523E-02
RMM:   5    -0.117445519344E+04    0.43842E-05   -0.14677E-05  1541   0.577E-03    0.419E-02
RMM:   6    -0.117445520175E+04   -0.83073E-05   -0.76674E-05  1647   0.108E-02    0.203E-02
RMM:   7    -0.117445520106E+04    0.69074E-06   -0.70046E-06  1522   0.444E-03
  10 F= -.11815551E+04 E0= -.11815551E+04  d E =-.455523E-03  mag=    -1.0000
       N       E                     dE             d eps       ncg     rms          rms(c)
DAV:   1    -0.117445538214E+04   -0.18039E-03   -0.42886E-02  1664   0.330E-01    0.411E-02
RMM:   2    -0.117445542711E+04   -0.44965E-04   -0.57766E-04  1536   0.436E-02    0.390E-02
RMM:   3    -0.117445543727E+04   -0.10168E-04   -0.15750E-04  1816   0.198E-02    0.368E-02
RMM:   4    -0.117445543330E+04    0.39768E-05   -0.22500E-05  1629   0.729E-03    0.337E-02
RMM:   5    -0.117445542417E+04    0.91278E-05   -0.13075E-05  1531   0.516E-03    0.239E-02
RMM:   6    -0.117445542105E+04    0.31194E-05   -0.34656E-05  1615   0.724E-03    0.108E-02
RMM:   7    -0.117445542117E+04   -0.11735E-06   -0.33910E-06  1167   0.318E-03
  11 F= -.11815552E+04 E0= -.11815552E+04  d E =-.565761E-03  mag=    -1.0000
       N       E                     dE             d eps       ncg     rms          rms(c)
DAV:   1    -0.117445556839E+04   -0.14734E-03   -0.51682E-02  1664   0.361E-01    0.444E-02
RMM:   2    -0.117445562469E+04   -0.56298E-04   -0.68760E-04  1537   0.461E-02    0.400E-02
RMM:   3    -0.117445563703E+04   -0.12337E-04   -0.18034E-04  1807   0.213E-02    0.358E-02
RMM:   4    -0.117445563383E+04    0.31966E-05   -0.26991E-05  1664   0.825E-03    0.294E-02
RMM:   5    -0.117445563020E+04    0.36344E-05   -0.20915E-05  1537   0.656E-03    0.184E-02
RMM:   6    -0.117445563111E+04   -0.91126E-06   -0.14973E-05  1576   0.532E-03    0.103E-02
RMM:   7    -0.117445563177E+04   -0.66375E-06   -0.20025E-06  1053   0.280E-03
  12 F= -.11815555E+04 E0= -.11815555E+04  d E =-.325314E-03  mag=    -1.0000
