       N       E                     dE             d eps       ncg     rms          rms(c)
DAV:   1     0.492162753620E+04    0.49216E+04   -0.17306E+05  1872   0.919E+02
DAV:   2    -0.563299842562E+02   -0.49780E+04   -0.45528E+04  2556   0.210E+02
DAV:   3    -0.120156070022E+04   -0.11452E+04   -0.11390E+04  2088   0.111E+02
DAV:   4    -0.124908422841E+04   -0.47524E+02   -0.47261E+02  1944   0.304E+01
DAV:   5    -0.125048592580E+04   -0.14017E+01   -0.13987E+01  2376   0.490E+00    0.687E+01
RMM:   6    -0.123100710888E+04    0.19479E+02   -0.22802E+01  1602   0.520E+00    0.527E+01
RMM:   7    -0.121193999176E+04    0.19067E+02   -0.14609E+01  1584   0.451E+00    0.395E+01
RMM:   8    -0.118764368980E+04    0.24296E+02   -0.31812E+01  1584   0.668E+00    0.260E+01
RMM:   9    -0.117970393924E+04    0.79398E+01   -0.21638E+01  1584   0.568E+00    0.167E+01
RMM:  10    -0.118141609647E+04   -0.17122E+01   -0.11423E+01  1585   0.420E+00    0.823E+00
RMM:  11    -0.118098033484E+04    0.43576E+00   -0.11489E+00  1634   0.171E+00    0.471E+00
RMM:  12    -0.118046819044E+04    0.51214E+00   -0.96696E-01  1584   0.115E+00    0.228E+00
RMM:  13    -0.118036644664E+04    0.10174E+00   -0.24770E-01  1650   0.631E-01    0.113E+00
RMM:  14    -0.118036341331E+04    0.30333E-02   -0.23002E-02  1707   0.201E-01    0.750E-01
RMM:  15    -0.118036349962E+04   -0.86309E-04   -0.39974E-03  1620   0.843E-02    0.573E-01
RMM:  16    -0.118036301271E+04    0.48691E-03   -0.45804E-03  1586   0.795E-02    0.310E-01
RMM:  17    -0.118036294353E+04    0.69176E-04   -0.81404E-04  1290   0.444E-02
   1 F= -.11877758E+04 E0= -.11877758E+04  d E =-.118778E+04  mag=     0.0131
       N       E                     dE             d eps       ncg     rms          rms(c)
DAV:   1    -0.118036209451E+04    0.91820E-03   -0.35406E-01  1764   0.951E-01    0.171E-01
RMM:   2    -0.118036293152E+04   -0.83701E-03   -0.10562E-02  1603   0.150E-01    0.155E-01
RMM:   3    -0.118036282159E+04    0.10992E-03   -0.71693E-04  1446   0.469E-02    0.149E-01
RMM:   4    -0.118036271045E+04    0.11114E-03   -0.12890E-04  1053   0.171E-02    0.129E-01
RMM:   5    -0.118036246907E+04    0.24138E-03   -0.12403E-03  1571   0.405E-02    0.389E-02
RMM:   6    -0.118036248850E+04   -0.19429E-04   -0.10765E-04  1026   0.185E-02
   2 F= -.11877755E+04 E0= -.11877755E+04  d E =0.382520E-03  mag=    -0.0021
       N       E                     dE             d eps       ncg     rms          rms(c)
DAV:   1    -0.118036376703E+04   -0.12980E-02   -0.12117E-01  1620   0.552E-01    0.995E-02
RMM:   2    -0.118036390722E+04   -0.14019E-03   -0.26678E-03  1585   0.809E-02    0.105E-01
RMM:   3    -0.118036388733E+04    0.19891E-04   -0.13458E-04  1062   0.227E-02
   3 F= -.11877768E+04 E0= -.11877768E+04  d E =-.973388E-03  mag=    -0.0009
