       N       E                     dE             d eps       ncg     rms          rms(c)
DAV:   1     0.472998998049E+04    0.47300E+04   -0.17760E+05  1856   0.945E+02
DAV:   2    -0.867422951624E+02   -0.48167E+04   -0.43939E+04  2400   0.214E+02
DAV:   3    -0.119610551598E+04   -0.11094E+04   -0.11032E+04  2016   0.111E+02
DAV:   4    -0.124234148129E+04   -0.46236E+02   -0.45951E+02  1920   0.298E+01
DAV:   5    -0.124355134369E+04   -0.12099E+01   -0.12073E+01  2304   0.463E+00    0.812E+01
RMM:   6    -0.122510828367E+04    0.18443E+02   -0.52070E+01  1680   0.828E+00    0.618E+01
RMM:   7    -0.121063847922E+04    0.14470E+02   -0.95313E+00  1562   0.421E+00    0.469E+01
RMM:   8    -0.119242303991E+04    0.18215E+02   -0.15870E+01  1544   0.512E+00    0.338E+01
RMM:   9    -0.117295619402E+04    0.19467E+02   -0.32912E+01  1585   0.731E+00    0.211E+01
RMM:  10    -0.117137810517E+04    0.15781E+01   -0.23648E+01  1551   0.637E+00    0.100E+01
RMM:  11    -0.117159795781E+04   -0.21985E+00   -0.25503E+00  1603   0.261E+00    0.833E+00
RMM:  12    -0.117133657403E+04    0.26138E+00   -0.42129E-01  1774   0.104E+00    0.641E+00
RMM:  13    -0.117107465356E+04    0.26192E+00   -0.38071E-01  1538   0.786E-01    0.333E+00
RMM:  14    -0.117094393844E+04    0.13072E+00   -0.33288E-01  1550   0.747E-01    0.136E+00
RMM:  15    -0.117093915686E+04    0.47816E-02   -0.78204E-02  1548   0.408E-01    0.921E-01
RMM:  16    -0.117094094433E+04   -0.17875E-02   -0.12367E-02  1671   0.176E-01    0.472E-01
RMM:  17    -0.117094250799E+04   -0.15637E-02   -0.11328E-02  1582   0.143E-01    0.314E-01
RMM:  18    -0.117094176614E+04    0.74185E-03   -0.32644E-03  1547   0.844E-02    0.144E-01
RMM:  19    -0.117094187975E+04   -0.11360E-03   -0.72691E-04  1692   0.385E-02    0.816E-02
RMM:  20    -0.117094195263E+04   -0.72880E-04   -0.15683E-04  1683   0.187E-02    0.568E-02
RMM:  21    -0.117094192167E+04    0.30957E-04   -0.14280E-04  1550   0.157E-02    0.417E-02
RMM:  22    -0.117094193555E+04   -0.13879E-04   -0.36801E-05  1569   0.868E-03    0.293E-02
RMM:  23    -0.117094193357E+04    0.19781E-05   -0.23805E-05  1547   0.651E-03    0.130E-02
RMM:  24    -0.117094193422E+04   -0.65182E-06   -0.41437E-06  1253   0.308E-03
   1 F= -.11780135E+04 E0= -.11780135E+04  d E =-.117801E+04  mag=     0.0004
