       N       E                     dE             d eps       ncg     rms          rms(c)
DAV:   1     0.462632383661E+04    0.46263E+04   -0.17687E+05  1944   0.916E+02
DAV:   2    -0.981797888841E+02   -0.47245E+04   -0.43025E+04  2520   0.205E+02
DAV:   3    -0.119126929398E+04   -0.10931E+04   -0.10887E+04  2196   0.106E+02
DAV:   4    -0.123501315828E+04   -0.43744E+02   -0.43495E+02  2052   0.274E+01
DAV:   5    -0.123627379727E+04   -0.12606E+01   -0.12579E+01  2412   0.400E+00    0.769E+01
RMM:   6    -0.122271061985E+04    0.13563E+02   -0.82875E+00  1584   0.316E+00    0.660E+01
RMM:   7    -0.118979360993E+04    0.32917E+02   -0.73150E+01  1585   0.976E+00    0.434E+01
RMM:   8    -0.117993499624E+04    0.98586E+01   -0.89232E+00  1655   0.252E+00    0.421E+01
RMM:   9    -0.119544286492E+04   -0.15508E+02   -0.10227E+02  1592   0.944E+00    0.288E+01
RMM:  10    -0.118951913418E+04    0.59237E+01   -0.29791E+00  1702   0.191E+00    0.231E+01
RMM:  11    -0.118479653939E+04    0.47226E+01   -0.12307E+00  1612   0.866E-01    0.210E+01
RMM:  12    -0.117720060866E+04    0.75959E+01   -0.82593E+00  1602   0.204E+00    0.121E+01
RMM:  13    -0.117625190147E+04    0.94871E+00   -0.38341E-01  1729   0.530E-01    0.110E+01
RMM:  14    -0.117417377348E+04    0.20781E+01   -0.55824E-01  1651   0.684E-01    0.876E+00
RMM:  15    -0.117207665766E+04    0.20971E+01   -0.11005E+00  1608   0.722E-01    0.580E+00
RMM:  16    -0.117155939103E+04    0.51727E+00   -0.24378E-01  1692   0.331E-01    0.449E+00
RMM:  17    -0.117140915855E+04    0.15023E+00   -0.56760E-02  1872   0.138E-01    0.394E+00
RMM:  18    -0.117141868139E+04   -0.95228E-02   -0.66545E-03  1612   0.431E-02    0.395E+00
RMM:  19    -0.117142683682E+04   -0.81554E-02   -0.12308E-03  1321   0.217E-02    0.399E+00
RMM:  20    -0.117138274676E+04    0.44090E-01   -0.70380E-03  1629   0.717E-02    0.396E+00
RMM:  21    -0.117170879164E+04   -0.32604E+00   -0.18585E-01  1605   0.404E-01    0.558E+00
RMM:  22    -0.117231112489E+04   -0.60233E+00   -0.23638E-01  1602   0.288E-01    0.563E+00
RMM:  23    -0.117258102577E+04   -0.26990E+00   -0.60932E-02  1718   0.143E-01    0.603E+00
RMM:  24    -0.117216931048E+04    0.41172E+00   -0.31476E-02  1606   0.154E-01    0.582E+00
RMM:  25    -0.118127150123E+04   -0.91022E+01   -0.22490E+00  1648   0.108E+00    0.372E+01
RMM:  26    -0.117821134841E+04    0.30602E+01   -0.82845E-02  1803   0.253E-01    0.370E+01
RMM:  27    -0.117962950957E+04   -0.14182E+01   -0.18429E-02  2016   0.912E-02    0.371E+01
RMM:  28    -0.117963351653E+04   -0.40070E-02   -0.34451E-03  1506   0.350E-02    0.371E+01
RMM:  29    -0.118037672400E+04   -0.74321E+00   -0.38856E-03  1797   0.441E-02    0.371E+01
RMM:  30    -0.117811316505E+04    0.22636E+01   -0.12134E-02  1600   0.896E-02    0.369E+01
RMM:  31    -0.117342685357E+04    0.46863E+01   -0.56460E-02  1617   0.163E-01    0.363E+01
RMM:  32    -0.117349545717E+04   -0.68604E-01   -0.33438E-03  1650   0.462E-02    0.363E+01
RMM:  33    -0.117433589546E+04   -0.84044E+00   -0.14500E-03  1335   0.304E-02    0.366E+01
RMM:  34    -0.117385727832E+04    0.47862E+00   -0.12072E-03  1466   0.336E-02    0.365E+01
RMM:  35    -0.117354759790E+04    0.30968E+00   -0.43062E-04  1177   0.164E-02    0.363E+01
RMM:  36    -0.117186682231E+04    0.16808E+01   -0.66128E-02  1639   0.896E-02    0.189E+01
RMM:  37    -0.117220526900E+04   -0.33845E+00   -0.53548E-03  1512   0.982E-02    0.238E+01
RMM:  38    -0.117207879945E+04    0.12647E+00   -0.12701E-03  1170   0.361E-02    0.214E+01
RMM:  39    -0.117204105099E+04    0.37748E-01   -0.48287E-04  1102   0.206E-02    0.207E+01
RMM:  40    -0.117201560590E+04    0.25445E-01   -0.21520E-04  1060   0.140E-02    0.204E+01
RMM:  41    -0.117213660674E+04   -0.12100E+00   -0.49471E-04  1066   0.125E-02    0.227E+01
RMM:  42    -0.117213499021E+04    0.16165E-02   -0.24160E-04  1047   0.207E-02    0.226E+01
RMM:  43    -0.117213877451E+04   -0.37843E-02   -0.43374E-05   828   0.679E-03    0.227E+01
RMM:  44    -0.117219904355E+04   -0.60269E-01   -0.15761E-04   939   0.647E-03    0.239E+01
RMM:  45    -0.117221125119E+04   -0.12208E-01   -0.82245E-05   992   0.116E-02    0.243E+01
RMM:  46    -0.117223292040E+04   -0.21669E-01   -0.55756E-05   816   0.622E-03    0.247E+01
RMM:  47    -0.117221597122E+04    0.16949E-01   -0.19346E-05   913   0.640E-03    0.244E+01
RMM:  48    -0.117244204586E+04   -0.22607E+00   -0.81768E-04  1150   0.133E-02    0.282E+01
RMM:  49    -0.117248862656E+04   -0.46581E-01   -0.51177E-04  1102   0.253E-02    0.290E+01
RMM:  50    -0.117238516105E+04    0.10347E+00   -0.41231E-04  1139   0.224E-02    0.274E+01
RMM:  51    -0.117094266520E+04    0.14425E+01   -0.44435E-01  1637   0.243E-01    0.757E+00
RMM:  52    -0.117114453012E+04   -0.20186E+00   -0.22753E-01  1701   0.184E-01    0.882E+00
RMM:  53    -0.117131625039E+04   -0.17172E+00   -0.23329E-01  1650   0.335E-01    0.693E+00
RMM:  54    -0.117139781988E+04   -0.81569E-01   -0.44195E-02  1869   0.129E-01    0.689E+00
RMM:  55    -0.117147348596E+04   -0.75666E-01   -0.13017E-02  1891   0.648E-02    0.694E+00
RMM:  56    -0.117112261246E+04    0.35087E+00   -0.12377E-01  1596   0.151E-01    0.443E+00
RMM:  57    -0.117120190925E+04   -0.79297E-01   -0.29099E-02  1629   0.143E-01    0.427E+00
RMM:  58    -0.117146490691E+04   -0.26300E+00   -0.62004E-02  1671   0.126E-01    0.524E+00
RMM:  59    -0.117162187807E+04   -0.15697E+00   -0.33817E-02  1755   0.869E-02    0.553E+00
RMM:  60    -0.117154750724E+04    0.74371E-01   -0.11502E-02  1678   0.667E-02    0.501E+00
RMM:  61    -0.117156379588E+04   -0.16289E-01   -0.60386E-03  1663   0.577E-02    0.479E+00
RMM:  62    -0.117156266704E+04    0.11288E-02   -0.44274E-04  1178   0.151E-02    0.479E+00
RMM:  63    -0.117155239960E+04    0.10267E-01   -0.16015E-04  1117   0.112E-02    0.480E+00
RMM:  64    -0.117148854052E+04    0.63859E-01   -0.24098E-03  1346   0.275E-02    0.465E+00
RMM:  65    -0.117144333709E+04    0.45203E-01   -0.24268E-03  1408   0.294E-02    0.451E+00
RMM:  66    -0.117141102619E+04    0.32311E-01   -0.12702E-03  1254   0.189E-02    0.438E+00
RMM:  67    -0.117138798027E+04    0.23046E-01   -0.65540E-04  1181   0.152E-02    0.433E+00
RMM:  68    -0.117134460653E+04    0.43374E-01   -0.14501E-03  1377   0.214E-02    0.423E+00
RMM:  69    -0.117144361476E+04   -0.99008E-01   -0.59632E-03  1362   0.346E-02    0.452E+00
RMM:  70    -0.117153662375E+04   -0.93009E-01   -0.78229E-03  1467   0.368E-02    0.479E+00
RMM:  71    -0.117178249867E+04   -0.24587E+00   -0.35593E-02  1668   0.850E-02    0.536E+00
RMM:  72    -0.117177896496E+04    0.35337E-02   -0.27306E-03  1294   0.232E-02    0.542E+00
RMM:  73    -0.117172452536E+04    0.54440E-01   -0.10269E-03  1179   0.173E-02    0.536E+00
RMM:  74    -0.117166947062E+04    0.55055E-01   -0.19106E-03  1202   0.191E-02    0.525E+00
RMM:  75    -0.117166891949E+04    0.55113E-03   -0.12091E-04   920   0.614E-03    0.524E+00
RMM:  76    -0.117183420296E+04   -0.16528E+00   -0.13806E-02  1577   0.833E-02    0.484E+00
RMM:  77    -0.117171323369E+04    0.12097E+00   -0.62764E-03  1470   0.464E-02    0.451E+00
RMM:  78    -0.117160228616E+04    0.11095E+00   -0.75632E-03  1445   0.403E-02    0.428E+00
RMM:  79    -0.117152140971E+04    0.80876E-01   -0.54733E-03  1498   0.358E-02    0.409E+00
RMM:  80    -0.117152999053E+04   -0.85808E-02   -0.23911E-04  1111   0.102E-02    0.411E+00
RMM:  81    -0.117116613054E+04    0.36386E+00   -0.89617E-02  1642   0.141E-01    0.297E+00
RMM:  82    -0.117116671961E+04   -0.58906E-03   -0.61191E-03  1463   0.362E-02    0.290E+00
RMM:  83    -0.117111798357E+04    0.48736E-01   -0.34533E-03  1579   0.317E-02    0.270E+00
RMM:  84    -0.117111211887E+04    0.58647E-02   -0.54142E-04  1203   0.163E-02    0.271E+00
RMM:  85    -0.117112398165E+04   -0.11863E-01   -0.61993E-04  1115   0.134E-02    0.282E+00
RMM:  86    -0.117114873864E+04   -0.24757E-01   -0.39202E-03  1194   0.307E-02    0.310E+00
RMM:  87    -0.117120927409E+04   -0.60535E-01   -0.53604E-03  1321   0.315E-02    0.347E+00
RMM:  88    -0.117123428004E+04   -0.25006E-01   -0.15532E-03  1269   0.236E-02    0.349E+00
RMM:  89    -0.117129828734E+04   -0.64007E-01   -0.49762E-03  1390   0.310E-02    0.375E+00
RMM:  90    -0.117130777790E+04   -0.94906E-02   -0.79144E-04  1157   0.125E-02    0.381E+00
RMM:  91    -0.117412834958E+04   -0.28206E+01   -0.61196E-01  1626   0.493E-01    0.357E+01
RMM:  92    -0.117164106981E+04    0.24873E+01   -0.17007E+00  1588   0.672E-01    0.394E+00
RMM:  93    -0.117112315233E+04    0.51792E+00   -0.61335E-02  1588   0.189E-01    0.259E+00
RMM:  94    -0.117103185701E+04    0.91295E-01   -0.34238E-02  1596   0.798E-02    0.208E+00
RMM:  95    -0.117114883641E+04   -0.11698E+00   -0.21604E-02  1519   0.646E-02    0.264E+00
RMM:  96    -0.117104284308E+04    0.10599E+00   -0.20350E-02  1619   0.998E-02    0.228E+00
RMM:  97    -0.117100614485E+04    0.36698E-01   -0.82224E-03  1686   0.608E-02    0.212E+00
RMM:  98    -0.117107688831E+04   -0.70743E-01   -0.14439E-02  1421   0.476E-02    0.297E+00
RMM:  99    -0.117106085538E+04    0.16033E-01   -0.15147E-03  1243   0.242E-02    0.298E+00
RMM: 100    -0.117105135256E+04    0.95028E-02   -0.12119E-03  1283   0.230E-02
   1 F= -.11781578E+04 E0= -.11781578E+04  d E =-.117816E+04  mag=     0.0210
       N       E                     dE             d eps       ncg     rms          rms(c)
DAV:   1    -0.117104256418E+04    0.18291E-01   -0.15543E+01  1656   0.488E+00    0.979E+00
RMM:   2    -0.117093502126E+04    0.10754E+00   -0.85341E-01  1596   0.719E-01    0.685E+00
RMM:   3    -0.117089354105E+04    0.41480E-01   -0.11157E-01  1616   0.236E-01    0.503E+00
RMM:   4    -0.117105063499E+04   -0.15709E+00   -0.45114E-01  1584   0.325E-01    0.783E+00
RMM:   5    -0.117087611525E+04    0.17452E+00   -0.19693E-01  1586   0.425E-01    0.378E+00
RMM:   6    -0.117085006127E+04    0.26054E-01   -0.11965E-01  1642   0.172E-01    0.246E+00
RMM:   7    -0.117084395899E+04    0.61023E-02   -0.10404E-02  1586   0.769E-02    0.150E+00
RMM:   8    -0.117085722276E+04   -0.13264E-01   -0.22371E-02  1590   0.120E-01    0.290E+00
RMM:   9    -0.117083365060E+04    0.23572E-01   -0.17421E-02  1584   0.662E-02    0.636E-01
RMM:  10    -0.117083530731E+04   -0.16567E-02   -0.44172E-03  1186   0.269E-02    0.287E-01
RMM:  11    -0.117083600073E+04   -0.69342E-03   -0.20099E-04  1079   0.138E-02    0.376E-01
RMM:  12    -0.117083577955E+04    0.22118E-03   -0.77774E-04  1108   0.197E-02    0.267E-01
RMM:  13    -0.117083612806E+04   -0.34851E-03   -0.53486E-04  1131   0.200E-02    0.475E-01
RMM:  14    -0.117083516699E+04    0.96108E-03   -0.76853E-04  1083   0.210E-02    0.345E-01
RMM:  15    -0.117083502131E+04    0.14567E-03   -0.27644E-04  1045   0.155E-02    0.256E-01
RMM:  16    -0.117083460068E+04    0.42063E-03   -0.50870E-04  1049   0.157E-02    0.155E-01
RMM:  17    -0.117083499040E+04   -0.38971E-03   -0.19420E-04  1036   0.120E-02    0.136E-01
RMM:  18    -0.117083514689E+04   -0.15649E-03   -0.14625E-04  1057   0.991E-03    0.176E-01
RMM:  19    -0.117083520355E+04   -0.56665E-04   -0.47564E-05  1000   0.750E-03
   2 F= -.11779404E+04 E0= -.11779404E+04  d E =0.217385E+00  mag=     0.0001
       N       E                     dE             d eps       ncg     rms          rms(c)
DAV:   1    -0.117097040529E+04   -0.13526E+00   -0.64120E+00  1728   0.303E+00    0.884E+00
RMM:   2    -0.117099355037E+04   -0.23145E-01   -0.34674E-01  1598   0.463E-01    0.380E+00
RMM:   3    -0.117093647921E+04    0.57071E-01   -0.42072E-02  1603   0.139E-01    0.427E+00
RMM:   4    -0.117104969169E+04   -0.11321E+00   -0.20507E-01  1590   0.304E-01    0.105E+01
RMM:   5    -0.117090510476E+04    0.14459E+00   -0.53360E-02  1600   0.192E-01    0.134E+00
RMM:   6    -0.117091952963E+04   -0.14425E-01   -0.40833E-03  1568   0.555E-02    0.115E+00
RMM:   7    -0.117091561218E+04    0.39174E-02   -0.22202E-02  1595   0.868E-02    0.458E-01
RMM:   8    -0.117091571007E+04   -0.97884E-04   -0.64289E-03  1461   0.369E-02    0.229E-01
RMM:   9    -0.117091576113E+04   -0.51056E-04   -0.55448E-04  1187   0.209E-02
   3 F= -.11780217E+04 E0= -.11780217E+04  d E =0.136096E+00  mag=    -0.0000
       N       E                     dE             d eps       ncg     rms          rms(c)
DAV:   1    -0.117091887313E+04   -0.31631E-02   -0.12122E-01  1872   0.416E-01    0.831E-01
RMM:   2    -0.117091929469E+04   -0.42156E-03   -0.45470E-03  1557   0.620E-02    0.482E-01
RMM:   3    -0.117091944294E+04   -0.14824E-03   -0.56724E-04  1041   0.169E-02    0.784E-01
RMM:   4    -0.117091950479E+04   -0.61856E-04   -0.36649E-04  1065   0.174E-02
   4 F= -.11780256E+04 E0= -.11780256E+04  d E =0.132243E+00  mag=    -0.0000
       N       E                     dE             d eps       ncg     rms          rms(c)
DAV:   1    -0.117092623304E+04   -0.67901E-02   -0.34233E-01  1728   0.698E-01    0.227E+00
RMM:   2    -0.117092673154E+04   -0.49849E-03   -0.18858E-02  1596   0.108E-01    0.111E+00
RMM:   3    -0.117092520773E+04    0.15238E-02   -0.32432E-03  1269   0.373E-02    0.169E+00
RMM:   4    -0.117092658568E+04   -0.13779E-02   -0.19711E-03  1550   0.390E-02    0.171E+00
RMM:   5    -0.117092480001E+04    0.17857E-02   -0.36663E-04  1044   0.162E-02    0.185E+00
RMM:   6    -0.117091361721E+04    0.11183E-01   -0.11796E-02  1589   0.913E-02    0.941E-01
RMM:   7    -0.117092181917E+04   -0.82020E-02   -0.26991E-03  1587   0.582E-02    0.370E-01
RMM:   8    -0.117092156100E+04    0.25817E-03   -0.75892E-04  1107   0.235E-02    0.431E-01
RMM:   9    -0.117092151541E+04    0.45599E-04   -0.18152E-03  1366   0.310E-02    0.133E-01
RMM:  10    -0.117092131155E+04    0.20386E-03   -0.21235E-04  1042   0.142E-02    0.667E-02
RMM:  11    -0.117092134416E+04   -0.32614E-04   -0.14856E-04  1017   0.110E-02
   5 F= -.11780276E+04 E0= -.11780276E+04  d E =0.130212E+00  mag=    -0.0000
       N       E                     dE             d eps       ncg     rms          rms(c)
DAV:   1    -0.117091810205E+04    0.32095E-02   -0.17570E+00  1584   0.148E+00    0.200E+00
RMM:   2    -0.117092286110E+04   -0.47590E-02   -0.56239E-02  1584   0.227E-01    0.181E+00
RMM:   3    -0.117092082826E+04    0.20328E-02   -0.55947E-03  1622   0.757E-02    0.106E+00
RMM:   4    -0.117092211516E+04   -0.12869E-02   -0.74710E-03  1606   0.741E-02    0.570E-01
RMM:   5    -0.117092133375E+04    0.78141E-03   -0.34539E-04  1120   0.169E-02    0.258E-01
RMM:   6    -0.117092093152E+04    0.40223E-03   -0.58163E-04  1290   0.210E-02    0.176E-01
RMM:   7    -0.117092073246E+04    0.19906E-03   -0.77062E-04  1313   0.233E-02    0.546E-02
RMM:   8    -0.117092072476E+04    0.77030E-05   -0.16953E-04  1065   0.125E-02
   6 F= -.11780277E+04 E0= -.11780277E+04  d E =-.103124E-03  mag=    -0.0000
       N       E                     dE             d eps       ncg     rms          rms(c)
DAV:   1    -0.117092318758E+04   -0.24551E-02   -0.40613E-01  1728   0.713E-01    0.957E-01
RMM:   2    -0.117092424398E+04   -0.10564E-02   -0.13175E-02  1584   0.109E-01    0.888E-01
RMM:   3    -0.117092371376E+04    0.53022E-03   -0.10983E-03  1410   0.340E-02    0.585E-01
RMM:   4    -0.117092406138E+04   -0.34762E-03   -0.24639E-03  1566   0.435E-02    0.280E-01
RMM:   5    -0.117092397874E+04    0.82637E-04   -0.10594E-04  1050   0.105E-02
   7 F= -.11780306E+04 E0= -.11780306E+04  d E =-.300958E-02  mag=     0.0000
       N       E                     dE             d eps       ncg     rms          rms(c)
DAV:   1    -0.117092985021E+04   -0.57888E-02   -0.90263E-01  1656   0.122E+00    0.597E-01
RMM:   2    -0.117093007547E+04   -0.22526E-03   -0.20397E-02  1595   0.163E-01    0.112E+00
RMM:   3    -0.117092973448E+04    0.34099E-03   -0.93394E-04  1295   0.350E-02    0.993E-01
RMM:   4    -0.117092670964E+04    0.30248E-02   -0.32655E-03  1584   0.572E-02    0.573E-01
RMM:   5    -0.117092599051E+04    0.71913E-03   -0.50058E-03  1592   0.702E-02    0.382E-01
RMM:   6    -0.117092527522E+04    0.71529E-03   -0.18330E-03  1521   0.381E-02    0.341E-01
RMM:   7    -0.117092639459E+04   -0.11194E-02   -0.45708E-04  1171   0.196E-02    0.400E-01
RMM:   8    -0.117092492905E+04    0.14655E-02   -0.21563E-03  1585   0.425E-02    0.195E-01
RMM:   9    -0.117092536909E+04   -0.44004E-03   -0.10088E-03  1349   0.246E-02    0.104E-01
RMM:  10    -0.117092541942E+04   -0.50333E-04   -0.26602E-04  1101   0.164E-02
   8 F= -.11780327E+04 E0= -.11780327E+04  d E =-.210736E-02  mag=    -0.0000
       N       E                     dE             d eps       ncg     rms          rms(c)
DAV:   1    -0.117092572566E+04   -0.35657E-03   -0.29305E-02  1728   0.223E-01    0.116E-01
RMM:   2    -0.117092568735E+04    0.38311E-04   -0.61986E-04  1154   0.295E-02
   9 F= -.11780329E+04 E0= -.11780329E+04  d E =-.225019E-02  mag=    -0.0000
       N       E                     dE             d eps       ncg     rms          rms(c)
DAV:   1    -0.117092733712E+04   -0.16115E-02   -0.74734E-01  1584   0.116E+00    0.102E+00
RMM:   2    -0.117092857909E+04   -0.12420E-02   -0.20473E-02  1612   0.158E-01    0.607E-01
RMM:   3    -0.117092807242E+04    0.50667E-03   -0.12761E-03  1328   0.371E-02    0.606E-01
RMM:   4    -0.117092769339E+04    0.37904E-03   -0.11615E-03  1561   0.365E-02    0.339E-01
RMM:   5    -0.117092775113E+04   -0.57741E-04   -0.75903E-04  1537   0.299E-02
  10 F= -.11780353E+04 E0= -.11780353E+04  d E =-.237187E-02  mag=     0.0000
       N       E                     dE             d eps       ncg     rms          rms(c)
DAV:   1    -0.117092771112E+04   -0.17731E-04   -0.17070E-02  1728   0.175E-01    0.141E-01
RMM:   2    -0.117092773238E+04   -0.21258E-04   -0.48595E-04  1130   0.253E-02
  11 F= -.11780353E+04 E0= -.11780353E+04  d E =-.239996E-02  mag=     0.0000
       N       E                     dE             d eps       ncg     rms          rms(c)
DAV:   1    -0.117092849000E+04   -0.77888E-03   -0.85183E-01  1584   0.122E+00    0.765E-01
RMM:   2    -0.117092996148E+04   -0.14715E-02   -0.20649E-02  1590   0.164E-01    0.500E-01
RMM:   3    -0.117092969563E+04    0.26585E-03   -0.12102E-03  1309   0.369E-02    0.479E-01
RMM:   4    -0.117092946329E+04    0.23235E-03   -0.77924E-04  1470   0.304E-02    0.290E-01
RMM:   5    -0.117092969321E+04   -0.22992E-03   -0.63036E-04  1405   0.271E-02    0.252E-01
RMM:   6    -0.117092920805E+04    0.48516E-03   -0.27956E-04  1093   0.192E-02    0.205E-01
RMM:   7    -0.117092921952E+04   -0.11469E-04   -0.19575E-04  1046   0.146E-02
  12 F= -.11780368E+04 E0= -.11780368E+04  d E =-.151236E-02  mag=    -0.0000
       N       E                     dE             d eps       ncg     rms          rms(c)
DAV:   1    -0.117092943301E+04   -0.22496E-03   -0.23131E-03  1728   0.667E-02    0.695E-02
RMM:   2    -0.117092948372E+04   -0.50715E-04   -0.11363E-04  1012   0.146E-02
  13 F= -.11780371E+04 E0= -.11780371E+04  d E =-.177520E-02  mag=     0.0000
       N       E                     dE             d eps       ncg     rms          rms(c)
DAV:   1    -0.117093047460E+04   -0.10416E-02   -0.40562E-01  1584   0.796E-01    0.183E-01
RMM:   2    -0.117093113982E+04   -0.66522E-03   -0.79939E-03  1588   0.103E-01    0.167E-01
RMM:   3    -0.117093108895E+04    0.50877E-04   -0.39476E-04  1168   0.221E-02
  14 F= -.11780386E+04 E0= -.11780386E+04  d E =-.158368E-02  mag=     0.0000
       N       E                     dE             d eps       ncg     rms          rms(c)
DAV:   1    -0.117092936025E+04    0.17796E-02   -0.36248E+00  1584   0.238E+00    0.704E-01
RMM:   2    -0.117093509439E+04   -0.57341E-02   -0.71811E-02  1588   0.307E-01    0.631E-01
RMM:   3    -0.117093445557E+04    0.63883E-03   -0.40085E-03  1650   0.666E-02    0.548E-01
RMM:   4    -0.117093334966E+04    0.11059E-02   -0.21772E-03  1561   0.484E-02    0.394E-01
RMM:   5    -0.117093363763E+04   -0.28798E-03   -0.36195E-03  1584   0.618E-02    0.190E-01
RMM:   6    -0.117093355773E+04    0.79900E-04   -0.10259E-04  1093   0.127E-02
  15 F= -.11780411E+04 E0= -.11780410E+04  d E =-.399606E-02  mag=     0.0000
       N       E                     dE             d eps       ncg     rms          rms(c)
DAV:   1    -0.117093373631E+04   -0.98673E-04   -0.15419E-01  1728   0.474E-01    0.234E-01
RMM:   2    -0.117093421379E+04   -0.47748E-03   -0.30053E-03  1555   0.608E-02    0.194E-01
RMM:   3    -0.117093421037E+04    0.34147E-05   -0.21668E-04  1101   0.159E-02
  16 F= -.11780417E+04 E0= -.11780417E+04  d E =-.613391E-03  mag=     0.0000
       N       E                     dE             d eps       ncg     rms          rms(c)
DAV:   1    -0.117093484734E+04   -0.63355E-03   -0.14122E+00  1656   0.145E+00    0.557E-01
RMM:   2    -0.117093698257E+04   -0.21352E-02   -0.26300E-02  1584   0.185E-01    0.458E-01
RMM:   3    -0.117093682185E+04    0.16071E-03   -0.15860E-03  1371   0.420E-02    0.501E-01
RMM:   4    -0.117093682328E+04   -0.14283E-05   -0.25469E-04  1106   0.193E-02
  17 F= -.11780442E+04 E0= -.11780442E+04  d E =-.311109E-02  mag=     0.0000
       N       E                     dE             d eps       ncg     rms          rms(c)
DAV:   1    -0.117093306896E+04    0.37529E-02   -0.55944E+00  1620   0.287E+00    0.106E+00
RMM:   2    -0.117094186971E+04   -0.88007E-02   -0.10536E-01  1584   0.368E-01    0.922E-01
RMM:   3    -0.117094114873E+04    0.72098E-03   -0.66124E-03  1677   0.848E-02    0.909E-01
RMM:   4    -0.117094119006E+04   -0.41335E-04   -0.94693E-04  1373   0.326E-02
  18 F= -.11780483E+04 E0= -.11780483E+04  d E =-.726001E-02  mag=     0.0001
       N       E                     dE             d eps       ncg     rms          rms(c)
DAV:   1    -0.117091144755E+04    0.29701E-01   -0.22431E+01  1620   0.577E+00    0.214E+00
RMM:   2    -0.117094890461E+04   -0.37457E-01   -0.44349E-01  1584   0.749E-01    0.189E+00
RMM:   3    -0.117094415178E+04    0.47528E-02   -0.27362E-02  1657   0.176E-01    0.164E+00
RMM:   4    -0.117094483038E+04   -0.67860E-03   -0.24404E-02  1586   0.153E-01    0.125E+00
RMM:   5    -0.117095070145E+04   -0.58711E-02   -0.24767E-02  1618   0.110E-01    0.744E-01
RMM:   6    -0.117095388031E+04   -0.31789E-02   -0.83468E-03  1610   0.782E-02    0.757E-01
RMM:   7    -0.117095382839E+04    0.51917E-04   -0.35108E-03  1564   0.494E-02    0.383E-01
RMM:   8    -0.117095353470E+04    0.29369E-03   -0.52852E-03  1600   0.579E-02    0.241E-01
RMM:   9    -0.117095407832E+04   -0.54362E-03   -0.42728E-04  1127   0.217E-02    0.151E-01
RMM:  10    -0.117095395030E+04    0.12802E-03   -0.43900E-04  1105   0.184E-02    0.102E-01
RMM:  11    -0.117095423489E+04   -0.28459E-03   -0.11870E-04  1040   0.122E-02    0.503E-02
RMM:  12    -0.117095422240E+04    0.12492E-04   -0.53897E-05  1018   0.802E-03
  19 F= -.11780610E+04 E0= -.11780609E+04  d E =-.199074E-01  mag=     0.0011
       N       E                     dE             d eps       ncg     rms          rms(c)
DAV:   1    -0.117094726098E+04    0.69739E-02   -0.86620E+00  1584   0.361E+00    0.997E-01
RMM:   2    -0.117096300880E+04   -0.15748E-01   -0.17933E-01  1584   0.475E-01    0.802E-01
RMM:   3    -0.117096179118E+04    0.12176E-02   -0.93565E-03  1702   0.104E-01    0.704E-01
RMM:   4    -0.117096039685E+04    0.13943E-02   -0.35327E-03  1589   0.629E-02    0.459E-01
RMM:   5    -0.117095984716E+04    0.54969E-03   -0.38195E-03  1585   0.632E-02    0.190E-01
RMM:   6    -0.117096054905E+04   -0.70189E-03   -0.41413E-04  1134   0.229E-02    0.859E-02
RMM:   7    -0.117096049805E+04    0.50997E-04   -0.11708E-04  1058   0.122E-02
  20 F= -.11780675E+04 E0= -.11780674E+04  d E =-.264129E-01  mag=     0.0011
       N       E                     dE             d eps       ncg     rms          rms(c)
DAV:   1    -0.117096688398E+04   -0.63349E-02   -0.44611E-01  1728   0.923E-01    0.124E+00
RMM:   2    -0.117096748279E+04   -0.59881E-03   -0.15595E-02  1597   0.147E-01    0.736E-01
RMM:   3    -0.117096739415E+04    0.88643E-04   -0.70630E-04  1260   0.312E-02
  21 F= -.11780744E+04 E0= -.11780743E+04  d E =-.697270E-02  mag=     0.0018
       N       E                     dE             d eps       ncg     rms          rms(c)
DAV:   1    -0.117096743606E+04    0.46732E-04   -0.22972E-01  1800   0.659E-01    0.105E+00
RMM:   2    -0.117096765168E+04   -0.21562E-03   -0.77925E-03  1642   0.939E-02    0.610E-01
RMM:   3    -0.117096769200E+04   -0.40316E-04   -0.35717E-04  1179   0.212E-02
  22 F= -.11780748E+04 E0= -.11780747E+04  d E =-.733380E-02  mag=     0.0019
       N       E                     dE             d eps       ncg     rms          rms(c)
DAV:   1    -0.117097090179E+04   -0.32501E-02   -0.46442E-01  1728   0.844E-01    0.141E+00
RMM:   2    -0.117097087621E+04    0.25582E-04   -0.15268E-02  1599   0.120E-01    0.810E-01
RMM:   3    -0.117097075287E+04    0.12334E-03   -0.72250E-04  1216   0.272E-02    0.754E-01
RMM:   4    -0.117097023758E+04    0.51529E-03   -0.30352E-03  1604   0.542E-02    0.276E-01
RMM:   5    -0.117097033372E+04   -0.96138E-04   -0.29793E-04  1141   0.175E-02
  23 F= -.11780775E+04 E0= -.11780774E+04  d E =-.271768E-02  mag=     0.0026
       N       E                     dE             d eps       ncg     rms          rms(c)
DAV:   1    -0.117097046252E+04   -0.22494E-03   -0.41753E-03  1764   0.887E-02    0.147E-01
RMM:   2    -0.117097049959E+04   -0.37078E-04   -0.33974E-04  1079   0.247E-02
  24 F= -.11780777E+04 E0= -.11780775E+04  d E =-.289009E-02  mag=     0.0029
       N       E                     dE             d eps       ncg     rms          rms(c)
DAV:   1    -0.117097223523E+04   -0.17727E-02   -0.13620E-01  1728   0.569E-01    0.317E-01
RMM:   2    -0.117097256843E+04   -0.33321E-03   -0.48520E-03  1598   0.888E-02    0.203E-01
RMM:   3    -0.117097251518E+04    0.53254E-04   -0.19881E-04  1116   0.184E-02
  25 F= -.11780797E+04 E0= -.11780795E+04  d E =-.200315E-02  mag=     0.0029
       N       E                     dE             d eps       ncg     rms          rms(c)
DAV:   1    -0.117097243147E+04    0.13697E-03   -0.22515E-02  1728   0.230E-01    0.192E-01
RMM:   2    -0.117097249327E+04   -0.61803E-04   -0.67831E-04  1196   0.300E-02
  26 F= -.11780797E+04 E0= -.11780795E+04  d E =-.197662E-02  mag=     0.0027
       N       E                     dE             d eps       ncg     rms          rms(c)
DAV:   1    -0.117097334881E+04   -0.91734E-03   -0.13201E-01  1728   0.485E-01    0.499E-01
RMM:   2    -0.117097373896E+04   -0.39015E-03   -0.51065E-03  1633   0.669E-02    0.431E-01
RMM:   3    -0.117097367312E+04    0.65839E-04   -0.29145E-04  1105   0.181E-02
  27 F= -.11780809E+04 E0= -.11780807E+04  d E =-.123987E-02  mag=     0.0028
       N       E                     dE             d eps       ncg     rms          rms(c)
DAV:   1    -0.117097345677E+04    0.28220E-03   -0.19616E-01  1728   0.587E-01    0.531E-01
RMM:   2    -0.117097411304E+04   -0.65627E-03   -0.73987E-03  1654   0.769E-02    0.448E-01
RMM:   3    -0.117097403227E+04    0.80769E-04   -0.28509E-04  1129   0.176E-02
  28 F= -.11780813E+04 E0= -.11780812E+04  d E =-.166781E-02  mag=     0.0027
       N       E                     dE             d eps       ncg     rms          rms(c)
DAV:   1    -0.117097525943E+04   -0.11464E-02   -0.21005E-01  1692   0.607E-01    0.319E-01
RMM:   2    -0.117097568538E+04   -0.42595E-03   -0.58973E-03  1599   0.859E-02    0.190E-01
RMM:   3    -0.117097563651E+04    0.48877E-04   -0.29307E-04  1144   0.189E-02
  29 F= -.11780829E+04 E0= -.11780828E+04  d E =-.160425E-02  mag=     0.0032
       N       E                     dE             d eps       ncg     rms          rms(c)
DAV:   1    -0.117097568351E+04    0.18735E-05   -0.15758E-01  1728   0.523E-01    0.396E-01
RMM:   2    -0.117097585631E+04   -0.17280E-03   -0.38994E-03  1603   0.714E-02    0.240E-01
RMM:   3    -0.117097583744E+04    0.18875E-04   -0.22563E-04  1105   0.165E-02
  30 F= -.11780831E+04 E0= -.11780829E+04  d E =-.180522E-02  mag=     0.0036
       N       E                     dE             d eps       ncg     rms          rms(c)
DAV:   1    -0.117097675178E+04   -0.89548E-03   -0.24720E-01  1692   0.544E-01    0.676E-01
RMM:   2    -0.117097699614E+04   -0.24436E-03   -0.55443E-03  1601   0.712E-02    0.442E-01
RMM:   3    -0.117097702384E+04   -0.27701E-04   -0.33729E-04  1110   0.165E-02
  31 F= -.11780843E+04 E0= -.11780840E+04  d E =-.114256E-02  mag=     0.0041
       N       E                     dE             d eps       ncg     rms          rms(c)
DAV:   1    -0.117097686990E+04    0.12624E-03   -0.52889E-01  1728   0.794E-01    0.999E-01
RMM:   2    -0.117097752474E+04   -0.65484E-03   -0.11611E-02  1601   0.101E-01    0.658E-01
RMM:   3    -0.117097754687E+04   -0.22133E-04   -0.73416E-04  1182   0.235E-02
  32 F= -.11780847E+04 E0= -.11780845E+04  d E =-.160429E-02  mag=     0.0053
       N       E                     dE             d eps       ncg     rms          rms(c)
DAV:   1    -0.117097811838E+04   -0.59365E-03   -0.16690E-01  1728   0.570E-01    0.283E-01
RMM:   2    -0.117097846624E+04   -0.34786E-03   -0.37496E-03  1596   0.808E-02    0.195E-01
RMM:   3    -0.117097847841E+04   -0.12173E-04   -0.21278E-04  1115   0.180E-02
  33 F= -.11780856E+04 E0= -.11780854E+04  d E =-.903740E-03  mag=     0.0047
       N       E                     dE             d eps       ncg     rms          rms(c)
DAV:   1    -0.117097840886E+04    0.57377E-04   -0.16143E-02  1728   0.174E-01    0.139E-01
RMM:   2    -0.117097843900E+04   -0.30143E-04   -0.30197E-04  1113   0.220E-02
  34 F= -.11780856E+04 E0= -.11780853E+04  d E =-.855702E-03  mag=     0.0050
