       N       E                     dE             d eps       ncg     rms          rms(c)
DAV:   1     0.459657284564E+04    0.45966E+04   -0.17208E+05  1908   0.898E+02
DAV:   2    -0.128102696841E+03   -0.47247E+04   -0.42893E+04  2520   0.203E+02
DAV:   3    -0.119196322466E+04   -0.10639E+04   -0.10592E+04  2124   0.105E+02
DAV:   4    -0.123423835095E+04   -0.42275E+02   -0.42066E+02  2052   0.274E+01
DAV:   5    -0.123532414958E+04   -0.10858E+01   -0.10839E+01  2376   0.406E+00    0.786E+01
RMM:   6    -0.122199031830E+04    0.13334E+02   -0.75523E+00  1584   0.305E+00    0.721E+01
RMM:   7    -0.120434866154E+04    0.17642E+02   -0.11697E+01  1584   0.386E+00    0.603E+01
RMM:   8    -0.117037790824E+04    0.33971E+02   -0.76173E+01  1584   0.969E+00    0.326E+01
RMM:   9    -0.117157048024E+04   -0.11926E+01   -0.22932E+01  1584   0.543E+00    0.137E+01
RMM:  10    -0.117250333861E+04   -0.93286E+00   -0.23723E+00  1597   0.184E+00    0.102E+01
RMM:  11    -0.117084240261E+04    0.16609E+01   -0.48373E+00  1584   0.231E+00    0.388E+00
RMM:  12    -0.117085823666E+04   -0.15834E-01   -0.74223E-02  1599   0.371E-01    0.179E+00
RMM:  13    -0.117081137726E+04    0.46859E-01   -0.55385E-02  1584   0.241E-01    0.126E+00
RMM:  14    -0.117078719870E+04    0.24179E-01   -0.17854E-01  1584   0.463E-01    0.484E-01
RMM:  15    -0.117078282847E+04    0.43702E-02   -0.13849E-02  1598   0.121E-01    0.368E-01
RMM:  16    -0.117078299302E+04   -0.16454E-03   -0.23332E-03  1575   0.468E-02    0.359E-01
RMM:  17    -0.117078296438E+04    0.28632E-04   -0.22150E-04  1109   0.186E-02
   1 F= -.11781125E+04 E0= -.11781125E+04  d E =-.117811E+04  mag=    -0.0046
       N       E                     dE             d eps       ncg     rms          rms(c)
DAV:   1    -0.117078163988E+04    0.13531E-02   -0.46341E-01  1728   0.108E+00    0.632E-01
RMM:   2    -0.117078245068E+04   -0.81080E-03   -0.13684E-02  1584   0.158E-01    0.544E-01
RMM:   3    -0.117078150039E+04    0.95029E-03   -0.15571E-03  1615   0.472E-02    0.381E-01
RMM:   4    -0.117078135405E+04    0.14634E-03   -0.43438E-03  1584   0.707E-02    0.847E-02
RMM:   5    -0.117078111033E+04    0.24371E-03   -0.18333E-04  1075   0.161E-02    0.569E-02
RMM:   6    -0.117078109107E+04    0.19263E-04   -0.25712E-04  1125   0.167E-02
   2 F= -.11781111E+04 E0= -.11781111E+04  d E =0.142815E-02  mag=    -0.0005
       N       E                     dE             d eps       ncg     rms          rms(c)
DAV:   1    -0.117078399129E+04   -0.28810E-02   -0.18385E-01  1656   0.679E-01    0.359E-01
RMM:   2    -0.117078417688E+04   -0.18559E-03   -0.46826E-03  1584   0.983E-02    0.306E-01
RMM:   3    -0.117078373759E+04    0.43929E-03   -0.55021E-04  1509   0.287E-02    0.217E-01
RMM:   4    -0.117078360614E+04    0.13145E-03   -0.19292E-03  1584   0.468E-02    0.553E-02
RMM:   5    -0.117078352371E+04    0.82430E-04   -0.61053E-05  1019   0.987E-03
   3 F= -.11781132E+04 E0= -.11781132E+04  d E =-.725526E-03  mag=    -0.0002
