       N       E                     dE             d eps       ncg     rms          rms(c)
DAV:   1     0.497767450381E+04    0.49777E+04   -0.16988E+05  1692   0.991E+02
DAV:   2     0.343775196477E+02   -0.49433E+04   -0.45476E+04  2268   0.220E+02
DAV:   3    -0.117515105057E+04   -0.12095E+04   -0.12028E+04  1872   0.120E+02
DAV:   4    -0.122817944969E+04   -0.53028E+02   -0.52661E+02  1872   0.335E+01
DAV:   5    -0.122945968986E+04   -0.12802E+01   -0.12752E+01  2016   0.487E+00    0.671E+01
RMM:   6    -0.121491256540E+04    0.14547E+02   -0.32466E+01  1440   0.575E+00    0.529E+01
RMM:   7    -0.119878084330E+04    0.16132E+02   -0.83879E+00  1440   0.370E+00    0.426E+01
RMM:   8    -0.116870364360E+04    0.30077E+02   -0.55060E+01  1440   0.915E+00    0.250E+01
RMM:   9    -0.116364800535E+04    0.50556E+01   -0.32646E+01  1440   0.699E+00    0.131E+01
RMM:  10    -0.116542178841E+04   -0.17738E+01   -0.40721E+00  1451   0.259E+00    0.923E+00
RMM:  11    -0.116400648776E+04    0.14153E+01   -0.15499E+00  1445   0.122E+00    0.588E+00
RMM:  12    -0.116356143302E+04    0.44505E+00   -0.99104E-01  1440   0.114E+00    0.325E+00
RMM:  13    -0.116346218132E+04    0.99252E-01   -0.52183E-01  1440   0.889E-01    0.102E+00
RMM:  14    -0.116345204716E+04    0.10134E-01   -0.54080E-02  1463   0.264E-01    0.368E-01
RMM:  15    -0.116345294572E+04   -0.89856E-03   -0.75719E-03  1473   0.979E-02    0.296E-01
RMM:  16    -0.116345227003E+04    0.67570E-03   -0.35582E-03  1444   0.695E-02    0.169E-01
RMM:  17    -0.116345236310E+04   -0.93071E-04   -0.90905E-04  1342   0.396E-02
   1 F= -.11706562E+04 E0= -.11706507E+04  d E =-.117066E+04  mag=    -0.8368
       N       E                     dE             d eps       ncg     rms          rms(c)
DAV:   1    -0.116344852812E+04    0.37419E-02   -0.14668E+00  1656   0.206E+00    0.527E-01
RMM:   2    -0.116345187382E+04   -0.33457E-02   -0.39828E-02  1442   0.308E-01    0.502E-01
RMM:   3    -0.116345142565E+04    0.44817E-03   -0.24766E-03  1554   0.650E-02    0.454E-01
RMM:   4    -0.116345049291E+04    0.93275E-03   -0.11243E-02  1440   0.120E-01    0.132E-01
RMM:   5    -0.116345037435E+04    0.11855E-03   -0.37315E-04  1073   0.289E-02    0.101E-01
RMM:   6    -0.116345007837E+04    0.29598E-03   -0.26534E-03  1411   0.501E-02    0.437E-02
RMM:   7    -0.116345007376E+04    0.46079E-05   -0.34090E-04  1141   0.206E-02
   2 F= -.11706543E+04 E0= -.11706492E+04  d E =0.184477E-02  mag=    -0.8440
       N       E                     dE             d eps       ncg     rms          rms(c)
DAV:   1    -0.116345440959E+04   -0.43312E-02   -0.46390E-01  1620   0.116E+00    0.293E-01
RMM:   2    -0.116345509251E+04   -0.68292E-03   -0.96037E-03  1440   0.162E-01    0.283E-01
RMM:   3    -0.116345492099E+04    0.17152E-03   -0.49868E-04  1087   0.312E-02    0.256E-01
RMM:   4    -0.116345463115E+04    0.28984E-03   -0.37463E-03  1440   0.701E-02    0.745E-02
RMM:   5    -0.116345456899E+04    0.62162E-04   -0.96581E-05   918   0.165E-02
   3 F= -.11706586E+04 E0= -.11706534E+04  d E =-.239687E-02  mag=    -0.8425
       N       E                     dE             d eps       ncg     rms          rms(c)
DAV:   1    -0.116345565204E+04   -0.10209E-02   -0.41124E-01  1512   0.103E+00    0.233E-01
RMM:   2    -0.116345599351E+04   -0.34147E-03   -0.82378E-03  1440   0.146E-01    0.205E-01
RMM:   3    -0.116345546571E+04    0.52780E-03   -0.56858E-04  1178   0.344E-02    0.164E-01
RMM:   4    -0.116345484911E+04    0.61660E-03   -0.31306E-03  1440   0.670E-02    0.492E-02
RMM:   5    -0.116345483351E+04    0.15601E-04   -0.67698E-05   890   0.134E-02
   4 F= -.11706585E+04 E0= -.11706533E+04  d E =0.919472E-04  mag=    -0.8424
       N       E                     dE             d eps       ncg     rms          rms(c)
DAV:   1    -0.116345553699E+04   -0.68788E-03   -0.10057E-01  1584   0.509E-01    0.105E-01
RMM:   2    -0.116345558954E+04   -0.52554E-04   -0.18400E-03  1440   0.685E-02    0.948E-02
RMM:   3    -0.116345545020E+04    0.13934E-03   -0.12731E-04   878   0.170E-02    0.756E-02
RMM:   4    -0.116345529965E+04    0.15054E-03   -0.85320E-04  1424   0.350E-02    0.218E-02
RMM:   5    -0.116345529565E+04    0.40084E-05   -0.15940E-05   860   0.687E-03
   5 F= -.11706591E+04 E0= -.11706539E+04  d E =-.545121E-03  mag=    -0.8426
