       N       E                     dE             d eps       ncg     rms          rms(c)
DAV:   1     0.521339403776E+04    0.52134E+04   -0.17073E+05  1800   0.920E+02
DAV:   2     0.512053825464E+02   -0.51622E+04   -0.46998E+04  2520   0.218E+02
DAV:   3    -0.118274848321E+04   -0.12340E+04   -0.12265E+04  2124   0.117E+02
DAV:   4    -0.123797398309E+04   -0.55225E+02   -0.54828E+02  2016   0.333E+01
DAV:   5    -0.124032135191E+04   -0.23474E+01   -0.23408E+01  2520   0.674E+00    0.604E+01
RMM:   6    -0.122734108815E+04    0.12980E+02   -0.64374E+00  1775   0.338E+00    0.490E+01
RMM:   7    -0.118581174765E+04    0.41529E+02   -0.61355E+01  1977   0.102E+01    0.285E+01
RMM:   8    -0.117423417201E+04    0.11578E+02   -0.42823E+01  1930   0.101E+01    0.131E+01
RMM:   9    -0.117588321776E+04   -0.16490E+01   -0.84814E+00  1909   0.826E+00    0.911E+00
RMM:  10    -0.117556019936E+04    0.32302E+00   -0.18695E+00  1951   0.375E+00    0.480E+00
RMM:  11    -0.117510995434E+04    0.45025E+00   -0.13810E+00  1904   0.205E+00    0.213E+00
RMM:  12    -0.117507742115E+04    0.32533E-01   -0.27576E-01  1975   0.128E+00    0.864E-01
RMM:  13    -0.117507253966E+04    0.48815E-02   -0.11407E-01  2068   0.541E-01    0.387E-01
RMM:  14    -0.117507123401E+04    0.13056E-02   -0.14601E-02  2023   0.184E-01    0.242E-01
RMM:  15    -0.117507123856E+04   -0.45452E-05   -0.46012E-03  2020   0.103E-01    0.164E-01
RMM:  16    -0.117507138043E+04   -0.14187E-03   -0.12571E-03  1653   0.568E-02    0.123E-01
RMM:  17    -0.117507165385E+04   -0.27342E-03   -0.10913E-03  1680   0.651E-02    0.644E-02
RMM:  18    -0.117507167953E+04   -0.25673E-04   -0.33725E-04  1334   0.412E-02
   1 F= -.11827655E+04 E0= -.11827604E+04  d E =-.118277E+04  mag=    -0.8377
       N       E                     dE             d eps       ncg     rms          rms(c)
DAV:   1    -0.117507022819E+04    0.14257E-02   -0.37268E-01  1800   0.938E-01    0.191E-01
RMM:   2    -0.117507091818E+04   -0.68999E-03   -0.11663E-02  1945   0.156E-01    0.171E-01
RMM:   3    -0.117507070988E+04    0.20830E-03   -0.81127E-04  1359   0.883E-02    0.145E-01
RMM:   4    -0.117507018979E+04    0.52009E-03   -0.13480E-03  1756   0.738E-02    0.700E-02
RMM:   5    -0.117507016558E+04    0.24213E-04   -0.45202E-04  1280   0.488E-02
   2 F= -.11827641E+04 E0= -.11827589E+04  d E =0.145059E-02  mag=    -0.8427
       N       E                     dE             d eps       ncg     rms          rms(c)
DAV:   1    -0.117507222274E+04   -0.20330E-02   -0.16401E-01  1728   0.621E-01    0.115E-01
RMM:   2    -0.117507251673E+04   -0.29399E-03   -0.48483E-03  1863   0.104E-01    0.101E-01
RMM:   3    -0.117507241320E+04    0.10353E-03   -0.31315E-04  1117   0.574E-02    0.855E-02
RMM:   4    -0.117507217919E+04    0.23401E-03   -0.47886E-04  1409   0.431E-02    0.387E-02
RMM:   5    -0.117507217805E+04    0.11321E-05   -0.18173E-04  1095   0.430E-02
   3 F= -.11827660E+04 E0= -.11827609E+04  d E =-.519568E-03  mag=    -0.8445
