       N       E                     dE             d eps       ncg     rms          rms(c)
DAV:   1     0.461999250221E+04    0.46200E+04   -0.17723E+05  1888   0.940E+02
DAV:   2    -0.103481327117E+03   -0.47235E+04   -0.43153E+04  2432   0.211E+02
DAV:   3    -0.119434930977E+04   -0.10909E+04   -0.10837E+04  1984   0.109E+02
DAV:   4    -0.123953841667E+04   -0.45189E+02   -0.44926E+02  1856   0.293E+01
DAV:   5    -0.124075477952E+04   -0.12164E+01   -0.12141E+01  2400   0.460E+00    0.747E+01
RMM:   6    -0.122317085478E+04    0.17584E+02   -0.14866E+01  1554   0.448E+00    0.516E+01
RMM:   7    -0.120146465730E+04    0.21706E+02   -0.25922E+01  1539   0.605E+00    0.362E+01
RMM:   8    -0.117704162751E+04    0.24423E+02   -0.36749E+01  1560   0.784E+00    0.235E+01
RMM:   9    -0.117251738522E+04    0.45242E+01   -0.15816E+01  1544   0.546E+00    0.161E+01
RMM:  10    -0.117386476618E+04   -0.13474E+01   -0.78049E+00  1548   0.391E+00    0.129E+01
RMM:  11    -0.117419433973E+04   -0.32957E+00   -0.25444E+00  1618   0.230E+00    0.109E+01
RMM:  12    -0.117593118586E+04   -0.17368E+01   -0.18809E+00  1611   0.133E+00    0.176E+01
RMM:  13    -0.117595052963E+04   -0.19344E-01   -0.20753E-01  1650   0.567E-01    0.178E+01
RMM:  14    -0.117378780543E+04    0.21627E+01   -0.53513E-01  1600   0.890E-01    0.840E+00
RMM:  15    -0.117366047776E+04    0.12733E+00   -0.12728E-01  1564   0.482E-01    0.701E+00
RMM:  16    -0.117345281339E+04    0.20766E+00   -0.69256E-02  1671   0.301E-01    0.526E+00
RMM:  17    -0.117321268351E+04    0.24013E+00   -0.15368E-01  1664   0.447E-01    0.319E+00
RMM:  18    -0.117316974691E+04    0.42937E-01   -0.27295E-02  1642   0.216E-01    0.247E+00
RMM:  19    -0.117313199071E+04    0.37756E-01   -0.25127E-02  1671   0.175E-01    0.173E+00
RMM:  20    -0.117311499076E+04    0.17000E-01   -0.12520E-02  1635   0.131E-01    0.148E+00
RMM:  21    -0.117309969920E+04    0.15292E-01   -0.81357E-03  1724   0.997E-02    0.112E+00
RMM:  22    -0.117310271574E+04   -0.30165E-02   -0.15343E-03  1912   0.508E-02    0.119E+00
RMM:  23    -0.117309030393E+04    0.12412E-01   -0.40034E-03  1679   0.598E-02    0.801E-01
RMM:  24    -0.117308604869E+04    0.42552E-02   -0.70637E-03  1758   0.793E-02    0.140E+00
RMM:  25    -0.117308513428E+04    0.91441E-03   -0.56835E-04  1585   0.394E-02    0.112E+00
RMM:  26    -0.117308480068E+04    0.33360E-03   -0.13431E-04  1833   0.135E-02    0.109E+00
RMM:  27    -0.117308874808E+04   -0.39474E-02   -0.35690E-04  1624   0.220E-02    0.137E+00
RMM:  28    -0.117309147637E+04   -0.27283E-02   -0.35308E-03  2079   0.591E-02    0.737E-01
RMM:  29    -0.117309230196E+04   -0.82559E-03   -0.49133E-04  1794   0.200E-02    0.916E-01
RMM:  30    -0.117309219223E+04    0.10973E-03   -0.46448E-05  1578   0.111E-02    0.959E-01
RMM:  31    -0.117309100265E+04    0.11896E-02   -0.20938E-04  1822   0.139E-02    0.431E-01
RMM:  32    -0.117309053645E+04    0.46619E-03   -0.69889E-04  2094   0.332E-02    0.257E-01
RMM:  33    -0.117309119244E+04   -0.65599E-03   -0.86193E-04  2180   0.329E-02    0.891E-01
RMM:  34    -0.117309226221E+04   -0.10698E-02   -0.44543E-04  1839   0.225E-02    0.742E-01
RMM:  35    -0.117309135096E+04    0.91124E-03   -0.41528E-04  1987   0.191E-02    0.392E-01
RMM:  36    -0.117309117264E+04    0.17833E-03   -0.56550E-05  1596   0.912E-03    0.374E-01
RMM:  37    -0.117309124973E+04   -0.77097E-04   -0.90856E-06  1451   0.532E-03    0.376E-01
RMM:  38    -0.117309113619E+04    0.11354E-03   -0.26815E-05  1651   0.667E-03    0.257E-01
RMM:  39    -0.117309115214E+04   -0.15948E-04   -0.19385E-05  1582   0.618E-03    0.183E-01
RMM:  40    -0.117309117592E+04   -0.23785E-04   -0.13475E-05  1513   0.501E-03    0.143E-01
RMM:  41    -0.117309117284E+04    0.30781E-05   -0.94757E-06  1443   0.382E-03    0.917E-02
RMM:  42    -0.117309118020E+04   -0.73540E-05   -0.83764E-06  1380   0.373E-03    0.505E-02
RMM:  43    -0.117309118349E+04   -0.32918E-05   -0.18218E-06  1047   0.205E-03    0.441E-02
RMM:  44    -0.117309118486E+04   -0.13677E-05   -0.92131E-07  1021   0.146E-03    0.389E-02
RMM:  45    -0.117309118554E+04   -0.68588E-06   -0.64055E-07  1013   0.112E-03
   1 F= -.11801595E+04 E0= -.11801544E+04  d E =-.118016E+04  mag=    -0.0578
       N       E                     dE             d eps       ncg     rms          rms(c)
DAV:   1    -0.117309001107E+04    0.11738E-02   -0.28230E-01  1728   0.989E-01    0.265E-01
RMM:   2    -0.117309126033E+04   -0.12493E-02   -0.11080E-02  1566   0.152E-01    0.531E-01
RMM:   3    -0.117309105093E+04    0.20940E-03   -0.25035E-03  1734   0.645E-02    0.237E-01
RMM:   4    -0.117309114087E+04   -0.89942E-04   -0.40420E-04  1944   0.262E-02    0.246E-01
RMM:   5    -0.117309110129E+04    0.39575E-04   -0.66021E-05  1624   0.106E-02    0.244E-01
RMM:   6    -0.117309095021E+04    0.15109E-03   -0.45721E-04  1548   0.269E-02    0.155E-01
RMM:   7    -0.117309093087E+04    0.19334E-04   -0.14492E-04  1569   0.162E-02    0.113E-01
RMM:   8    -0.117309093060E+04    0.27461E-06   -0.20650E-05  1571   0.641E-03    0.106E-01
RMM:   9    -0.117309092691E+04    0.36926E-05   -0.10940E-05  1529   0.411E-03    0.929E-02
RMM:  10    -0.117309092361E+04    0.32982E-05   -0.63532E-06  1433   0.326E-03    0.793E-02
RMM:  11    -0.117309092005E+04    0.35569E-05   -0.63401E-06  1401   0.323E-03    0.591E-02
RMM:  12    -0.117309091695E+04    0.31046E-05   -0.28909E-06  1145   0.206E-03    0.480E-02
RMM:  13    -0.117309091436E+04    0.25916E-05   -0.24235E-06  1135   0.186E-03    0.369E-02
RMM:  14    -0.117309091247E+04    0.18812E-05   -0.26457E-06  1153   0.199E-03    0.236E-02
RMM:  15    -0.117309091179E+04    0.67952E-06   -0.12412E-06  1023   0.146E-03
   2 F= -.11801598E+04 E0= -.11801548E+04  d E =-.292825E-03  mag=    -0.0570
       N       E                     dE             d eps       ncg     rms          rms(c)
DAV:   1    -0.117309138301E+04   -0.47053E-03   -0.53111E-02  1760   0.426E-01    0.117E-01
RMM:   2    -0.117309159677E+04   -0.21376E-03   -0.18183E-03  1553   0.639E-02    0.221E-01
RMM:   3    -0.117309154468E+04    0.52086E-04   -0.39575E-04  1687   0.263E-02    0.103E-01
RMM:   4    -0.117309155365E+04   -0.89684E-05   -0.61792E-05  1851   0.104E-02    0.103E-01
RMM:   5    -0.117309154134E+04    0.12315E-04   -0.11585E-05  1524   0.456E-03    0.857E-02
RMM:   6    -0.117309152815E+04    0.13189E-04   -0.19961E-04  1543   0.168E-02    0.352E-02
RMM:   7    -0.117309153300E+04   -0.48485E-05   -0.39687E-05  1575   0.881E-03    0.278E-02
RMM:   8    -0.117309152913E+04    0.38633E-05   -0.50753E-06  1321   0.343E-03    0.229E-02
RMM:   9    -0.117309151810E+04    0.11033E-04   -0.26377E-05  1525   0.562E-03    0.106E-02
RMM:  10    -0.117309151865E+04   -0.55335E-06   -0.73748E-06  1454   0.337E-03
   3 F= -.11801602E+04 E0= -.11801551E+04  d E =-.655229E-03  mag=    -0.0566
       N       E                     dE             d eps       ncg     rms          rms(c)
DAV:   1    -0.117309172886E+04   -0.21076E-03   -0.10931E-01  1824   0.628E-01    0.108E-01
RMM:   2    -0.117309197513E+04   -0.24628E-03   -0.29014E-03  1542   0.804E-02    0.113E-01
RMM:   3    -0.117309201682E+04   -0.41693E-04   -0.66921E-04  1613   0.325E-02    0.977E-02
RMM:   4    -0.117309200509E+04    0.11736E-04   -0.87965E-05  1739   0.137E-02    0.793E-02
RMM:   5    -0.117309198335E+04    0.21739E-04   -0.13301E-04  1536   0.147E-02    0.434E-02
RMM:   6    -0.117309199392E+04   -0.10566E-04   -0.65010E-05  1551   0.103E-02    0.244E-02
RMM:   7    -0.117309198970E+04    0.42114E-05   -0.12692E-05  1519   0.487E-03    0.158E-02
RMM:   8    -0.117309199079E+04   -0.10824E-05   -0.57105E-06  1385   0.303E-03    0.679E-03
RMM:   9    -0.117309198979E+04    0.99994E-06   -0.21528E-06  1087   0.190E-03
   4 F= -.11801608E+04 E0= -.11801558E+04  d E =-.616165E-03  mag=    -0.0570
       N       E                     dE             d eps       ncg     rms          rms(c)
DAV:   1    -0.117309197575E+04    0.15041E-04   -0.26331E-03  1984   0.968E-02    0.169E-02
RMM:   2    -0.117309198181E+04   -0.60634E-05   -0.70801E-05  1542   0.127E-02    0.175E-02
RMM:   3    -0.117309198288E+04   -0.10696E-05   -0.16321E-05  1424   0.518E-03    0.154E-02
RMM:   4    -0.117309198259E+04    0.29233E-06   -0.23191E-06  1081   0.223E-03
   5 F= -.11801608E+04 E0= -.11801558E+04  d E =-.631279E-03  mag=    -0.0571
       N       E                     dE             d eps       ncg     rms          rms(c)
DAV:   1    -0.117309230584E+04   -0.32296E-03   -0.10234E-01  1664   0.559E-01    0.106E-01
RMM:   2    -0.117309248630E+04   -0.18046E-03   -0.19408E-03  1551   0.724E-02    0.190E-01
RMM:   3    -0.117309244901E+04    0.37284E-04   -0.43502E-04  1647   0.309E-02    0.768E-02
RMM:   4    -0.117309245207E+04   -0.30564E-05   -0.73795E-05  1804   0.129E-02    0.748E-02
RMM:   5    -0.117309243025E+04    0.21821E-04   -0.71835E-05  1539   0.110E-02    0.475E-02
RMM:   6    -0.117309244289E+04   -0.12647E-04   -0.12232E-04  1575   0.133E-02    0.254E-02
RMM:   7    -0.117309243846E+04    0.44363E-05   -0.14014E-05  1532   0.567E-03    0.117E-02
RMM:   8    -0.117309243917E+04   -0.70764E-06   -0.50004E-06  1369   0.293E-03
   6 F= -.11801614E+04 E0= -.11801563E+04  d E =-.568725E-03  mag=    -0.0568
