       N       E                     dE             d eps       ncg     rms          rms(c)
DAV:   1     0.502825795657E+04    0.50283E+04   -0.17247E+05  1800   0.920E+02
DAV:   2    -0.375673188831E+02   -0.50658E+04   -0.46397E+04  2592   0.212E+02
DAV:   3    -0.119402289674E+04   -0.11565E+04   -0.11503E+04  2052   0.111E+02
DAV:   4    -0.124189090182E+04   -0.47868E+02   -0.47603E+02  1944   0.300E+01
DAV:   5    -0.124318672726E+04   -0.12958E+01   -0.12928E+01  2196   0.467E+00    0.656E+01
RMM:   6    -0.122676972914E+04    0.16417E+02   -0.22839E+01  1584   0.484E+00    0.523E+01
RMM:   7    -0.121128295191E+04    0.15487E+02   -0.81842E+00  1584   0.329E+00    0.413E+01
RMM:   8    -0.118508388945E+04    0.26199E+02   -0.31619E+01  1584   0.649E+00    0.266E+01
RMM:   9    -0.117496744164E+04    0.10116E+02   -0.19627E+01  1584   0.509E+00    0.185E+01
RMM:  10    -0.117575814677E+04   -0.79071E+00   -0.15198E+01  1584   0.443E+00    0.918E+00
RMM:  11    -0.117562593149E+04    0.13222E+00   -0.95024E-01  1627   0.121E+00    0.668E+00
RMM:  12    -0.117520172139E+04    0.42421E+00   -0.22366E-01  1584   0.560E-01    0.480E+00
RMM:  13    -0.117490344306E+04    0.29828E+00   -0.12272E+00  1584   0.126E+00    0.121E+00
RMM:  14    -0.117490927774E+04   -0.58347E-02   -0.37264E-02  1620   0.249E-01    0.580E-01
RMM:  15    -0.117490378513E+04    0.54926E-02   -0.11968E-02  1590   0.116E-01    0.294E-01
RMM:  16    -0.117490393709E+04   -0.15196E-03   -0.12701E-03  1584   0.472E-02    0.209E-01
RMM:  17    -0.117490362407E+04    0.31302E-03   -0.23510E-03  1487   0.478E-02    0.978E-02
RMM:  18    -0.117490369714E+04   -0.73066E-04   -0.38627E-04  1149   0.229E-02
   1 F= -.11821299E+04 E0= -.11821298E+04  d E =-.118213E+04  mag=     1.0122
       N       E                     dE             d eps       ncg     rms          rms(c)
DAV:   1    -0.117490394403E+04   -0.31996E-03   -0.74996E-01  1692   0.119E+00    0.308E-01
RMM:   2    -0.117490495641E+04   -0.10124E-02   -0.16164E-02  1584   0.163E-01    0.281E-01
RMM:   3    -0.117490470245E+04    0.25396E-03   -0.85955E-04  1367   0.346E-02    0.251E-01
RMM:   4    -0.117490426602E+04    0.43642E-03   -0.18116E-03  1584   0.486E-02    0.102E-01
RMM:   5    -0.117490429989E+04   -0.33870E-04   -0.27439E-04  1163   0.207E-02
   2 F= -.11821310E+04 E0= -.11821308E+04  d E =-.108264E-02  mag=     0.9969
       N       E                     dE             d eps       ncg     rms          rms(c)
DAV:   1    -0.117490518441E+04   -0.91839E-03   -0.11119E-01  1620   0.459E-01    0.112E-01
RMM:   2    -0.117490528561E+04   -0.10120E-03   -0.21342E-03  1548   0.608E-02    0.100E-01
RMM:   3    -0.117490521629E+04    0.69316E-04   -0.98185E-05  1034   0.130E-02
   3 F= -.11821317E+04 E0= -.11821316E+04  d E =-.181261E-02  mag=     0.9977
       N       E                     dE             d eps       ncg     rms          rms(c)
DAV:   1    -0.117490530120E+04   -0.15588E-04   -0.39212E-01  1692   0.837E-01    0.192E-01
RMM:   2    -0.117490581574E+04   -0.51454E-03   -0.71899E-03  1584   0.111E-01    0.159E-01
RMM:   3    -0.117490571413E+04    0.10161E-03   -0.29537E-04  1139   0.228E-02    0.128E-01
RMM:   4    -0.117490567244E+04    0.41683E-04   -0.56575E-04  1391   0.275E-02
   4 F= -.11821325E+04 E0= -.11821324E+04  d E =-.818442E-03  mag=     0.9969
       N       E                     dE             d eps       ncg     rms          rms(c)
DAV:   1    -0.117490575992E+04   -0.45793E-04   -0.60821E-03  1800   0.106E-01    0.307E-02
RMM:   2    -0.117490577274E+04   -0.12815E-04   -0.11795E-04  1015   0.153E-02
   5 F= -.11821326E+04 E0= -.11821324E+04  d E =-.874594E-03  mag=     0.9970
