       N       E                     dE             d eps       ncg     rms          rms(c)
DAV:   1     0.508946206069E+04    0.50895E+04   -0.17571E+05  1836   0.929E+02
DAV:   2    -0.296101965452E+02   -0.51191E+04   -0.46959E+04  2556   0.213E+02
DAV:   3    -0.119892612111E+04   -0.11693E+04   -0.11644E+04  2232   0.112E+02
DAV:   4    -0.124655241703E+04   -0.47626E+02   -0.47344E+02  2088   0.286E+01
DAV:   5    -0.124798367232E+04   -0.14313E+01   -0.14275E+01  2520   0.423E+00    0.637E+01
RMM:   6    -0.123502870183E+04    0.12955E+02   -0.77000E+00  1590   0.316E+00    0.520E+01
RMM:   7    -0.119209399106E+04    0.42935E+02   -0.73766E+01  1587   0.959E+00    0.290E+01
RMM:   8    -0.118258780977E+04    0.95062E+01   -0.43950E+01  1592   0.750E+00    0.130E+01
RMM:   9    -0.118379963463E+04   -0.12118E+01   -0.92831E+00  1598   0.351E+00    0.927E+00
RMM:  10    -0.118272106690E+04    0.10786E+01   -0.39429E+00  1584   0.209E+00    0.426E+00
RMM:  11    -0.118248314701E+04    0.23792E+00   -0.24941E-01  1602   0.540E-01    0.213E+00
RMM:  12    -0.118240638840E+04    0.76759E-01   -0.23119E-01  1584   0.520E-01    0.108E+00
RMM:  13    -0.118238437075E+04    0.22018E-01   -0.75027E-02  1670   0.254E-01    0.265E-01
RMM:  14    -0.118238402548E+04    0.34527E-03   -0.15236E-02  1768   0.111E-01    0.248E-01
RMM:  15    -0.118238351859E+04    0.50690E-03   -0.35925E-03  1645   0.644E-02    0.126E-01
RMM:  16    -0.118238386603E+04   -0.34744E-03   -0.12887E-03  1590   0.376E-02    0.856E-02
RMM:  17    -0.118238382242E+04    0.43612E-04   -0.25169E-04  1172   0.181E-02
   1 F= -.11895862E+04 E0= -.11895862E+04  d E =-.118959E+04  mag=     0.0043
       N       E                     dE             d eps       ncg     rms          rms(c)
DAV:   1    -0.118238119707E+04    0.26690E-02   -0.25452E+00  1584   0.216E+00    0.658E-01
RMM:   2    -0.118238469773E+04   -0.35007E-02   -0.53097E-02  1642   0.289E-01    0.608E-01
RMM:   3    -0.118238360021E+04    0.10975E-02   -0.35841E-03  1794   0.622E-02    0.539E-01
RMM:   4    -0.118238465830E+04   -0.10581E-02   -0.91816E-03  1588   0.964E-02    0.202E-01
RMM:   5    -0.118238400791E+04    0.65039E-03   -0.47409E-04  1213   0.231E-02    0.959E-02
RMM:   6    -0.118238386683E+04    0.14107E-03   -0.72638E-04  1384   0.234E-02    0.391E-02
RMM:   7    -0.118238387340E+04   -0.65680E-05   -0.86649E-05  1055   0.106E-02
   2 F= -.11895873E+04 E0= -.11895873E+04  d E =-.105465E-02  mag=    -0.0000
       N       E                     dE             d eps       ncg     rms          rms(c)
DAV:   1    -0.118238682616E+04   -0.29593E-02   -0.57105E-01  1728   0.102E+00    0.309E-01
RMM:   2    -0.118238736890E+04   -0.54274E-03   -0.10490E-02  1631   0.130E-01    0.284E-01
RMM:   3    -0.118238710904E+04    0.25986E-03   -0.63756E-04  1307   0.279E-02    0.242E-01
RMM:   4    -0.118238749731E+04   -0.38827E-03   -0.19870E-03  1549   0.455E-02    0.890E-02
RMM:   5    -0.118238729899E+04    0.19832E-03   -0.20321E-04  1092   0.144E-02    0.349E-02
RMM:   6    -0.118238729091E+04    0.80797E-05   -0.10061E-04  1046   0.965E-03
   3 F= -.11895902E+04 E0= -.11895902E+04  d E =-.398920E-02  mag=     0.0000
       N       E                     dE             d eps       ncg     rms          rms(c)
DAV:   1    -0.118238744442E+04   -0.14543E-03   -0.20154E+00  1620   0.182E+00    0.511E-01
RMM:   2    -0.118238941768E+04   -0.19733E-02   -0.35469E-02  1619   0.229E-01    0.457E-01
RMM:   3    -0.118238852206E+04    0.89563E-03   -0.19847E-03  1692   0.481E-02    0.383E-01
RMM:   4    -0.118238943796E+04   -0.91591E-03   -0.57779E-03  1603   0.785E-02    0.147E-01
RMM:   5    -0.118238903490E+04    0.40307E-03   -0.42988E-04  1200   0.205E-02    0.769E-02
RMM:   6    -0.118238901425E+04    0.20646E-04   -0.41178E-04  1223   0.179E-02
   4 F= -.11895930E+04 E0= -.11895930E+04  d E =-.277630E-02  mag=    -0.0000
       N       E                     dE             d eps       ncg     rms          rms(c)
DAV:   1    -0.118238959772E+04   -0.56282E-03   -0.15399E-01  1656   0.510E-01    0.141E-01
RMM:   2    -0.118238968443E+04   -0.86709E-04   -0.28893E-03  1556   0.641E-02    0.127E-01
RMM:   3    -0.118238955714E+04    0.12729E-03   -0.12626E-04  1075   0.143E-02    0.107E-01
RMM:   4    -0.118238963748E+04   -0.80338E-04   -0.63348E-04  1419   0.265E-02
   5 F= -.11895933E+04 E0= -.11895933E+04  d E =-.310647E-02  mag=    -0.0000
       N       E                     dE             d eps       ncg     rms          rms(c)
DAV:   1    -0.118239003947E+04   -0.48234E-03   -0.87991E-01  1728   0.133E+00    0.248E-01
RMM:   2    -0.118239089311E+04   -0.85363E-03   -0.15514E-02  1600   0.167E-01    0.213E-01
RMM:   3    -0.118239047206E+04    0.42104E-03   -0.88307E-04  1403   0.348E-02    0.175E-01
RMM:   4    -0.118239066888E+04   -0.19681E-03   -0.28178E-03  1598   0.570E-02    0.630E-02
RMM:   5    -0.118239056539E+04    0.10349E-03   -0.92666E-05  1052   0.119E-02    0.497E-02
RMM:   6    -0.118239059220E+04   -0.26813E-04   -0.16758E-04  1084   0.125E-02
   6 F= -.11895948E+04 E0= -.11895948E+04  d E =-.152579E-02  mag=     0.0000
       N       E                     dE             d eps       ncg     rms          rms(c)
DAV:   1    -0.118239081904E+04   -0.25365E-03   -0.44307E-02  1800   0.302E-01    0.609E-02
RMM:   2    -0.118239083812E+04   -0.19082E-04   -0.90337E-04  1412   0.413E-02
   7 F= -.11895950E+04 E0= -.11895950E+04  d E =-.164317E-02  mag=     0.0000
       N       E                     dE             d eps       ncg     rms          rms(c)
DAV:   1    -0.118239144548E+04   -0.62644E-03   -0.55127E-01  1656   0.112E+00    0.150E-01
RMM:   2    -0.118239216678E+04   -0.72130E-03   -0.97018E-03  1586   0.139E-01    0.130E-01
RMM:   3    -0.118239201135E+04    0.15543E-03   -0.43369E-04  1248   0.273E-02    0.115E-01
RMM:   4    -0.118239218794E+04   -0.17659E-03   -0.13115E-03  1522   0.390E-02    0.412E-02
RMM:   5    -0.118239212101E+04    0.66933E-04   -0.41035E-05  1020   0.903E-03
   8 F= -.11895964E+04 E0= -.11895964E+04  d E =-.141081E-02  mag=     0.0000
       N       E                     dE             d eps       ncg     rms          rms(c)
DAV:   1    -0.118239213297E+04    0.54969E-04   -0.10330E-02  1800   0.153E-01    0.317E-02
RMM:   2    -0.118239213474E+04   -0.17657E-05   -0.26622E-04  1108   0.258E-02
   9 F= -.11895964E+04 E0= -.11895964E+04  d E =-.144180E-02  mag=     0.0000
       N       E                     dE             d eps       ncg     rms          rms(c)
DAV:   1    -0.118239310249E+04   -0.96952E-03   -0.31412E-01  1620   0.878E-01    0.137E-01
RMM:   2    -0.118239336816E+04   -0.26567E-03   -0.55942E-03  1584   0.111E-01    0.126E-01
RMM:   3    -0.118239327375E+04    0.94409E-04   -0.26473E-04  1188   0.229E-02
  10 F= -.11895975E+04 E0= -.11895975E+04  d E =-.110264E-02  mag=    -0.0000
       N       E                     dE             d eps       ncg     rms          rms(c)
DAV:   1    -0.118239292546E+04    0.44270E-03   -0.26072E-01  1584   0.801E-01    0.129E-01
RMM:   2    -0.118239311418E+04   -0.18872E-03   -0.41407E-03  1584   0.942E-02    0.118E-01
RMM:   3    -0.118239309295E+04    0.21226E-04   -0.20222E-04  1152   0.197E-02
  11 F= -.11895973E+04 E0= -.11895973E+04  d E =-.890293E-03  mag=     0.0000
