       N       E                     dE             d eps       ncg     rms          rms(c)
DAV:   1     0.503440172981E+04    0.50344E+04   -0.17225E+05  1800   0.919E+02
DAV:   2    -0.135480792605E+02   -0.50479E+04   -0.46211E+04  2520   0.213E+02
DAV:   3    -0.117936284437E+04   -0.11658E+04   -0.11605E+04  2088   0.112E+02
DAV:   4    -0.122814159981E+04   -0.48779E+02   -0.48535E+02  2016   0.301E+01
DAV:   5    -0.122937003073E+04   -0.12284E+01   -0.12250E+01  2304   0.440E+00    0.610E+01
RMM:   6    -0.121763973027E+04    0.11730E+02   -0.71071E+00  1584   0.308E+00    0.496E+01
RMM:   7    -0.117747439951E+04    0.40165E+02   -0.61913E+01  1584   0.899E+00    0.292E+01
RMM:   8    -0.116672951950E+04    0.10745E+02   -0.56872E+01  1584   0.859E+00    0.118E+01
RMM:   9    -0.116797626622E+04   -0.12467E+01   -0.56583E+00  1592   0.283E+00    0.932E+00
RMM:  10    -0.116671991473E+04    0.12564E+01   -0.69697E+00  1584   0.295E+00    0.278E+00
RMM:  11    -0.116671953553E+04    0.37920E-03   -0.95652E-01  1584   0.112E+00    0.206E+00
RMM:  12    -0.116662347229E+04    0.96063E-01   -0.10089E-01  1584   0.372E-01    0.126E+00
RMM:  13    -0.116659773048E+04    0.25742E-01   -0.28366E-01  1584   0.591E-01    0.475E-01
RMM:  14    -0.116658984053E+04    0.78900E-02   -0.21454E-02  1584   0.170E-01    0.160E-01
RMM:  15    -0.116658985190E+04   -0.11378E-04   -0.94647E-04  1531   0.374E-02
   1 F= -.11737425E+04 E0= -.11737425E+04  d E =-.117374E+04  mag=    -0.0012
       N       E                     dE             d eps       ncg     rms          rms(c)
DAV:   1    -0.116658904595E+04    0.79458E-03   -0.46063E-01  1692   0.103E+00    0.210E-01
RMM:   2    -0.116658987556E+04   -0.82961E-03   -0.12655E-02  1584   0.157E-01    0.197E-01
RMM:   3    -0.116658957082E+04    0.30473E-03   -0.57613E-04  1342   0.319E-02    0.177E-01
RMM:   4    -0.116658888340E+04    0.68742E-03   -0.40724E-03  1584   0.712E-02    0.559E-02
RMM:   5    -0.116658883207E+04    0.51330E-04   -0.70497E-05  1030   0.129E-02
   2 F= -.11737417E+04 E0= -.11737417E+04  d E =0.782652E-03  mag=    -0.0002
       N       E                     dE             d eps       ncg     rms          rms(c)
DAV:   1    -0.116659076505E+04   -0.18816E-02   -0.17358E-01  1728   0.630E-01    0.107E-01
RMM:   2    -0.116659099703E+04   -0.23198E-03   -0.40015E-03  1584   0.887E-02    0.987E-02
RMM:   3    -0.116659088320E+04    0.11383E-03   -0.14868E-04  1046   0.174E-02    0.886E-02
RMM:   4    -0.116659063795E+04    0.24525E-03   -0.12963E-03  1584   0.404E-02    0.271E-02
RMM:   5    -0.116659063134E+04    0.66112E-05   -0.19446E-05   998   0.733E-03
   3 F= -.11737434E+04 E0= -.11737434E+04  d E =-.870068E-03  mag=    -0.0001
