       N       E                     dE             d eps       ncg     rms          rms(c)
DAV:   1     0.478357487995E+04    0.47836E+04   -0.17380E+05  1872   0.909E+02
DAV:   2    -0.925290989008E+02   -0.48761E+04   -0.44411E+04  2592   0.209E+02
DAV:   3    -0.118850384902E+04   -0.10960E+04   -0.10916E+04  2124   0.108E+02
DAV:   4    -0.123364513319E+04   -0.45141E+02   -0.44866E+02  2124   0.283E+01
DAV:   5    -0.123499188429E+04   -0.13468E+01   -0.13425E+01  2484   0.424E+00    0.621E+01
RMM:   6    -0.122143430598E+04    0.13558E+02   -0.75626E+00  1589   0.317E+00    0.514E+01
RMM:   7    -0.118297133449E+04    0.38463E+02   -0.59480E+01  1586   0.874E+00    0.295E+01
RMM:   8    -0.117344361517E+04    0.95277E+01   -0.15864E+01  1598   0.454E+00    0.221E+01
RMM:   9    -0.117096610530E+04    0.24775E+01   -0.25539E+01  1584   0.574E+00    0.101E+01
RMM:  10    -0.117146251212E+04   -0.49641E+00   -0.19266E+00  1607   0.167E+00    0.826E+00
RMM:  11    -0.117080324186E+04    0.65927E+00   -0.17989E+00  1592   0.138E+00    0.396E+00
RMM:  12    -0.117050366064E+04    0.29958E+00   -0.59308E-01  1594   0.878E-01    0.189E+00
RMM:  13    -0.117045103738E+04    0.52623E-01   -0.23261E-01  1599   0.487E-01    0.153E+00
RMM:  14    -0.117045858726E+04   -0.75499E-02   -0.72149E-03  1671   0.117E-01    0.130E+00
RMM:  15    -0.117048631391E+04   -0.27727E-01   -0.68723E-02  1620   0.259E-01    0.501E-01
RMM:  16    -0.117048640855E+04   -0.94645E-04   -0.71273E-03  1652   0.949E-02    0.359E-01
RMM:  17    -0.117048610295E+04    0.30560E-03   -0.17683E-03  1615   0.516E-02    0.332E-01
RMM:  18    -0.117048764360E+04   -0.15407E-02   -0.20029E-03  1564   0.485E-02    0.196E-01
RMM:  19    -0.117048771285E+04   -0.69250E-04   -0.21760E-03  1536   0.443E-02    0.702E-02
RMM:  20    -0.117048781914E+04   -0.10629E-03   -0.21142E-04  1181   0.160E-02    0.521E-02
RMM:  21    -0.117048786396E+04   -0.44828E-04   -0.13709E-04  1107   0.141E-02
   1 F= -.11775706E+04 E0= -.11775606E+04  d E =-.117757E+04  mag=     0.5938
       N       E                     dE             d eps       ncg     rms          rms(c)
DAV:   1    -0.117047577932E+04    0.12040E-01   -0.46923E+00  1620   0.316E+00    0.114E+00
RMM:   2    -0.117048534867E+04   -0.95694E-02   -0.12848E-01  1657   0.447E-01    0.105E+00
RMM:   3    -0.117048341959E+04    0.19291E-02   -0.79948E-03  1770   0.958E-02    0.916E-01
RMM:   4    -0.117048447970E+04   -0.10601E-02   -0.11939E-02  1596   0.114E-01    0.331E-01
RMM:   5    -0.117048286269E+04    0.16170E-02   -0.15649E-03  1500   0.379E-02    0.110E-01
RMM:   6    -0.117048269727E+04    0.16542E-03   -0.52054E-04  1307   0.213E-02    0.712E-02
RMM:   7    -0.117048269797E+04   -0.70070E-06   -0.18581E-04  1114   0.153E-02
   2 F= -.11775657E+04 E0= -.11775547E+04  d E =0.484096E-02  mag=     0.5080
       N       E                     dE             d eps       ncg     rms          rms(c)
DAV:   1    -0.117049127757E+04   -0.85803E-02   -0.15283E+00  1728   0.180E+00    0.659E-01
RMM:   2    -0.117049421213E+04   -0.29346E-02   -0.39547E-02  1644   0.246E-01    0.616E-01
RMM:   3    -0.117049343442E+04    0.77772E-03   -0.22623E-03  1588   0.521E-02    0.519E-01
RMM:   4    -0.117049388088E+04   -0.44646E-03   -0.37139E-03  1594   0.636E-02    0.186E-01
RMM:   5    -0.117049324100E+04    0.63989E-03   -0.86802E-04  1346   0.260E-02    0.499E-02
RMM:   6    -0.117049321367E+04    0.27327E-04   -0.76679E-05  1076   0.949E-03
   3 F= -.11775760E+04 E0= -.11775648E+04  d E =-.548533E-02  mag=     0.4957
       N       E                     dE             d eps       ncg     rms          rms(c)
DAV:   1    -0.117049256719E+04    0.67381E-03   -0.76074E-01  1656   0.138E+00    0.363E-01
RMM:   2    -0.117049413755E+04   -0.15704E-02   -0.20056E-02  1600   0.201E-01    0.314E-01
RMM:   3    -0.117049371904E+04    0.41851E-03   -0.10702E-03  1494   0.411E-02    0.266E-01
RMM:   4    -0.117049357966E+04    0.13938E-03   -0.39084E-03  1588   0.672E-02    0.939E-02
RMM:   5    -0.117049342581E+04    0.15385E-03   -0.13008E-04  1079   0.148E-02    0.598E-02
RMM:   6    -0.117049335810E+04    0.67709E-04   -0.23070E-04  1151   0.150E-02
   4 F= -.11775763E+04 E0= -.11775648E+04  d E =-.224085E-03  mag=     0.4818
       N       E                     dE             d eps       ncg     rms          rms(c)
DAV:   1    -0.117049453722E+04   -0.11114E-02   -0.18513E-01  1728   0.680E-01    0.179E-01
RMM:   2    -0.117049487584E+04   -0.33862E-03   -0.48072E-03  1608   0.982E-02    0.158E-01
RMM:   3    -0.117049474502E+04    0.13083E-03   -0.24326E-04  1151   0.207E-02    0.135E-01
RMM:   4    -0.117049468980E+04    0.55214E-04   -0.12121E-03  1571   0.381E-02    0.488E-02
RMM:   5    -0.117049464467E+04    0.45131E-04   -0.40521E-05  1004   0.855E-03
   5 F= -.11775775E+04 E0= -.11775661E+04  d E =-.147391E-02  mag=     0.4804
       N       E                     dE             d eps       ncg     rms          rms(c)
DAV:   1    -0.117049572472E+04   -0.10349E-02   -0.30222E-01  1728   0.867E-01    0.146E-01
RMM:   2    -0.117049608451E+04   -0.35979E-03   -0.60575E-03  1590   0.115E-01    0.134E-01
RMM:   3    -0.117049591432E+04    0.17019E-03   -0.35236E-04  1186   0.244E-02    0.118E-01
RMM:   4    -0.117049565721E+04    0.25711E-03   -0.18441E-03  1582   0.466E-02    0.453E-02
RMM:   5    -0.117049563128E+04    0.25932E-04   -0.35636E-05  1014   0.914E-03
   6 F= -.11775787E+04 E0= -.11775672E+04  d E =-.116189E-02  mag=     0.4808
       N       E                     dE             d eps       ncg     rms          rms(c)
DAV:   1    -0.117049569345E+04   -0.36237E-04   -0.76608E-03  1764   0.139E-01    0.221E-02
RMM:   2    -0.117049569900E+04   -0.55547E-05   -0.11176E-04  1006   0.162E-02
   7 F= -.11775787E+04 E0= -.11775673E+04  d E =-.120062E-02  mag=     0.4808
       N       E                     dE             d eps       ncg     rms          rms(c)
DAV:   1    -0.117049638530E+04   -0.69185E-03   -0.15444E-01  1728   0.603E-01    0.922E-02
RMM:   2    -0.117049655911E+04   -0.17382E-03   -0.25370E-03  1596   0.745E-02    0.822E-02
RMM:   3    -0.117049652906E+04    0.30049E-04   -0.14986E-04  1107   0.168E-02
   8 F= -.11775797E+04 E0= -.11775682E+04  d E =-.928809E-03  mag=     0.4804
       N       E                     dE             d eps       ncg     rms          rms(c)
DAV:   1    -0.117049648348E+04    0.75635E-04   -0.14404E-02  1728   0.187E-01    0.528E-02
RMM:   2    -0.117049647948E+04    0.39964E-05   -0.16860E-04  1095   0.196E-02
   9 F= -.11775796E+04 E0= -.11775682E+04  d E =-.912450E-03  mag=     0.4790
