       N       E                     dE             d eps       ncg     rms          rms(c)
DAV:   1     0.464237160321E+04    0.46424E+04   -0.17625E+05  1908   0.909E+02
DAV:   2    -0.118520799028E+03   -0.47609E+04   -0.43381E+04  2520   0.209E+02
DAV:   3    -0.119241599460E+04   -0.10739E+04   -0.10695E+04  2124   0.107E+02
DAV:   4    -0.123575040527E+04   -0.43334E+02   -0.43136E+02  2052   0.286E+01
DAV:   5    -0.123693447687E+04   -0.11841E+01   -0.11820E+01  2376   0.448E+00    0.751E+01
RMM:   6    -0.121725524147E+04    0.19679E+02   -0.68306E+01  1607   0.979E+00    0.707E+01
RMM:   7    -0.120677663958E+04    0.10479E+02   -0.52484E+00  1592   0.308E+00    0.510E+01
RMM:   8    -0.119419658368E+04    0.12580E+02   -0.78322E+00  1584   0.363E+00    0.387E+01
RMM:   9    -0.117073550193E+04    0.23461E+02   -0.35247E+01  1584   0.701E+00    0.245E+01
RMM:  10    -0.116408360856E+04    0.66519E+01   -0.20506E+01  1587   0.548E+00    0.176E+01
RMM:  11    -0.116529268948E+04   -0.12091E+01   -0.33200E+00  1600   0.246E+00    0.131E+01
RMM:  12    -0.116541792925E+04   -0.12524E+00   -0.27477E+00  1586   0.215E+00    0.675E+00
RMM:  13    -0.116508670605E+04    0.33122E+00   -0.21853E-01  1584   0.669E-01    0.500E+00
RMM:  14    -0.116482720028E+04    0.25951E+00   -0.79950E-01  1584   0.102E+00    0.234E+00
RMM:  15    -0.116484363125E+04   -0.16431E-01   -0.20616E-02  1603   0.257E-01    0.107E+00
RMM:  16    -0.116483675754E+04    0.68737E-02   -0.29449E-02  1585   0.199E-01    0.499E-01
RMM:  17    -0.116483748681E+04   -0.72927E-03   -0.77478E-03  1584   0.114E-01    0.304E-01
RMM:  18    -0.116483765148E+04   -0.16467E-03   -0.12635E-03  1580   0.480E-02    0.230E-01
RMM:  19    -0.116483773713E+04   -0.85649E-04   -0.51029E-04  1249   0.347E-02
   1 F= -.11718867E+04 E0= -.11718839E+04  d E =-.117189E+04  mag=    -0.9168
       N       E                     dE             d eps       ncg     rms          rms(c)
DAV:   1    -0.116482970090E+04    0.79506E-02   -0.58793E-01  1872   0.210E+00    0.260E-01
RMM:   2    -0.116483873541E+04   -0.90345E-02   -0.95797E-02  1612   0.302E-01    0.186E-01
RMM:   3    -0.116483650787E+04    0.22275E-02   -0.26332E-03  1587   0.662E-02    0.167E-01
RMM:   4    -0.116483614855E+04    0.35932E-03   -0.15105E-03  1565   0.428E-02    0.916E-02
RMM:   5    -0.116483618000E+04   -0.31456E-04   -0.56398E-04  1499   0.303E-02
   2 F= -.11718852E+04 E0= -.11718821E+04  d E =0.151664E-02  mag=    -0.9197
       N       E                     dE             d eps       ncg     rms          rms(c)
DAV:   1    -0.116483592992E+04    0.21863E-03   -0.24550E-01  1800   0.135E+00    0.156E-01
RMM:   2    -0.116483960834E+04   -0.36784E-02   -0.37898E-02  1599   0.191E-01    0.982E-02
RMM:   3    -0.116483876985E+04    0.83849E-03   -0.19912E-03  1249   0.435E-02    0.812E-02
RMM:   4    -0.116483869663E+04    0.73221E-04   -0.20174E-04  1040   0.195E-02
   3 F= -.11718877E+04 E0= -.11718846E+04  d E =-.972263E-03  mag=    -0.9210
