       N       E                     dE             d eps       ncg     rms          rms(c)
DAV:   1     0.487051459073E+04    0.48705E+04   -0.17684E+05  1944   0.924E+02
DAV:   2     0.295940856325E+02   -0.48409E+04   -0.44192E+04  2556   0.210E+02
DAV:   3    -0.119538999209E+04   -0.12250E+04   -0.12185E+04  2304   0.115E+02
DAV:   4    -0.124883265251E+04   -0.53443E+02   -0.53147E+02  2304   0.317E+01
DAV:   5    -0.125006150376E+04   -0.12289E+01   -0.12228E+01  2232   0.470E+00    0.756E+01
RMM:   6    -0.122842488661E+04    0.21637E+02   -0.12641E+01  2167   0.565E+00    0.585E+01
RMM:   7    -0.120003513021E+04    0.28390E+02   -0.36784E+01  2102   0.818E+00    0.415E+01
RMM:   8    -0.118228602636E+04    0.17749E+02   -0.26874E+01  2068   0.923E+00    0.284E+01
RMM:   9    -0.117873211808E+04    0.35539E+01   -0.12033E+01  2076   0.725E+00    0.187E+01
RMM:  10    -0.117960673079E+04   -0.87461E+00   -0.12609E+01  2112   0.472E+00    0.108E+01
RMM:  11    -0.118007702197E+04   -0.47029E+00   -0.10579E+00  2008   0.305E+00    0.781E+00
RMM:  12    -0.117898609372E+04    0.10909E+01   -0.14477E+00  2084   0.183E+00    0.318E+00
RMM:  13    -0.117884759947E+04    0.13849E+00   -0.86176E-01  2094   0.183E+00    0.145E+00
RMM:  14    -0.117882932708E+04    0.18272E-01   -0.58143E-02  1996   0.828E-01    0.680E-01
RMM:  15    -0.117882872229E+04    0.60479E-03   -0.39149E-02  2105   0.284E-01    0.365E-01
RMM:  16    -0.117882779144E+04    0.93085E-03   -0.62321E-03  1831   0.211E-01    0.220E-01
RMM:  17    -0.117882807287E+04   -0.28142E-03   -0.28762E-03  1608   0.134E-01    0.166E-01
RMM:  18    -0.117882822931E+04   -0.15644E-03   -0.65439E-04  1247   0.148E-01    0.114E-01
RMM:  19    -0.117882823706E+04   -0.77535E-05   -0.51844E-04  1319   0.151E-01
   1 F= -.11861421E+04 E0= -.11861421E+04  d E =-.118614E+04  mag=     0.0002
       N       E                     dE             d eps       ncg     rms          rms(c)
DAV:   1    -0.117882496204E+04    0.32673E-02   -0.84312E-01  1872   0.160E+00    0.675E-01
RMM:   2    -0.117882680009E+04   -0.18380E-02   -0.24214E-02  2172   0.253E-01    0.804E-01
RMM:   3    -0.117882745169E+04   -0.65160E-03   -0.65276E-03  1289   0.520E-01    0.618E-01
RMM:   4    -0.117882664781E+04    0.80388E-03   -0.57905E-04  1314   0.132E-01    0.522E-01
RMM:   5    -0.117882631339E+04    0.33442E-03   -0.66137E-03  2031   0.195E-01    0.384E-01
RMM:   6    -0.117882640852E+04   -0.95131E-04   -0.68059E-04  1228   0.998E-02
   2 F= -.11861412E+04 E0= -.11861412E+04  d E =0.944894E-03  mag=    -0.0001
       N       E                     dE             d eps       ncg     rms          rms(c)
DAV:   1    -0.117882953460E+04   -0.32212E-02   -0.28669E-01  1980   0.937E-01    0.373E-01
RMM:   2    -0.117882978153E+04   -0.24692E-03   -0.67801E-03  2040   0.139E-01    0.401E-01
RMM:   3    -0.117882983850E+04   -0.56969E-04   -0.23318E-03  1292   0.423E-01    0.300E-01
RMM:   4    -0.117882916070E+04    0.67780E-03   -0.45375E-04  1256   0.998E-02    0.203E-01
RMM:   5    -0.117882903320E+04    0.12750E-03   -0.37748E-04  1157   0.153E-01    0.167E-01
RMM:   6    -0.117882902114E+04    0.12059E-04   -0.13673E-03  1373   0.194E-01    0.116E-01
RMM:   7    -0.117882912320E+04   -0.10206E-03   -0.10126E-03  1327   0.219E-01    0.548E-02
RMM:   8    -0.117882916929E+04   -0.46092E-04   -0.85527E-04  1384   0.155E-01
   3 F= -.11861434E+04 E0= -.11861434E+04  d E =-.130426E-02  mag=    -0.0000
       N       E                     dE             d eps       ncg     rms          rms(c)
DAV:   1    -0.117883034249E+04   -0.12193E-02   -0.42444E-01  1836   0.108E+00    0.453E-01
RMM:   2    -0.117883082592E+04   -0.48343E-03   -0.97173E-03  2015   0.155E-01    0.664E-01
RMM:   3    -0.117883116887E+04   -0.34295E-03   -0.32314E-03  1328   0.468E-01    0.444E-01
RMM:   4    -0.117883087442E+04    0.29445E-03   -0.17053E-04  1145   0.965E-02    0.422E-01
RMM:   5    -0.117883019903E+04    0.67539E-03   -0.60057E-04  1259   0.117E-01    0.406E-01
RMM:   6    -0.117883046245E+04   -0.26342E-03   -0.42861E-03  1948   0.179E-01    0.511E-01
RMM:   7    -0.117883044337E+04    0.19086E-04   -0.50735E-04  1174   0.108E-01
   4 F= -.11861448E+04 E0= -.11861448E+04  d E =-.142159E-02  mag=     0.0000
       N       E                     dE             d eps       ncg     rms          rms(c)
DAV:   1    -0.117883053928E+04   -0.76824E-04   -0.16288E-02  1908   0.227E-01    0.580E-01
RMM:   2    -0.117883047170E+04    0.67573E-04   -0.35042E-04  1272   0.287E-02
   5 F= -.11861448E+04 E0= -.11861448E+04  d E =-.142096E-02  mag=    -0.0000
       N       E                     dE             d eps       ncg     rms          rms(c)
DAV:   1    -0.117883138744E+04   -0.84816E-03   -0.19958E-01  1836   0.737E-01    0.323E-01
RMM:   2    -0.117883170819E+04   -0.32075E-03   -0.40445E-03  2044   0.114E-01    0.627E-01
RMM:   3    -0.117883192709E+04   -0.21890E-03   -0.24882E-03  1259   0.325E-01    0.297E-01
RMM:   4    -0.117883188378E+04    0.43307E-04   -0.83523E-05  1096   0.872E-02
   6 F= -.11861461E+04 E0= -.11861461E+04  d E =-.121183E-02  mag=     0.0000
       N       E                     dE             d eps       ncg     rms          rms(c)
DAV:   1    -0.117883197030E+04   -0.43211E-04   -0.10562E-01  1800   0.550E-01    0.196E-01
RMM:   2    -0.117883215660E+04   -0.18630E-03   -0.24004E-03  1910   0.802E-02    0.397E-01
RMM:   3    -0.117883223506E+04   -0.78458E-04   -0.11416E-03  1257   0.269E-01    0.189E-01
RMM:   4    -0.117883224050E+04   -0.54331E-05   -0.25793E-05  1055   0.668E-02
   7 F= -.11861463E+04 E0= -.11861463E+04  d E =-.142263E-02  mag=    -0.0000
       N       E                     dE             d eps       ncg     rms          rms(c)
DAV:   1    -0.117883319007E+04   -0.95500E-03   -0.51784E-02  1800   0.385E-01    0.200E-01
RMM:   2    -0.117883326761E+04   -0.77539E-04   -0.12184E-03  1816   0.536E-02    0.304E-01
RMM:   3    -0.117883328746E+04   -0.19855E-04   -0.38034E-04  1161   0.151E-01
   8 F= -.11861473E+04 E0= -.11861473E+04  d E =-.100112E-02  mag=    -0.0000
       N       E                     dE             d eps       ncg     rms          rms(c)
DAV:   1    -0.117883468404E+04   -0.14164E-02   -0.46447E-01  1764   0.110E+00    0.336E-01
RMM:   2    -0.117883537679E+04   -0.69276E-03   -0.10000E-02  2040   0.165E-01    0.801E-01
RMM:   3    -0.117883576523E+04   -0.38843E-03   -0.44942E-03  1315   0.467E-01    0.325E-01
RMM:   4    -0.117883571154E+04    0.53692E-04   -0.27834E-04  1156   0.954E-02
   9 F= -.11861496E+04 E0= -.11861496E+04  d E =-.329376E-02  mag=     0.0000
       N       E                     dE             d eps       ncg     rms          rms(c)
DAV:   1    -0.117883248380E+04    0.32814E-02   -0.18098E+00  1764   0.218E+00    0.517E-01
RMM:   2    -0.117883571737E+04   -0.32336E-02   -0.38987E-02  2045   0.323E-01    0.158E+00
RMM:   3    -0.117883729641E+04   -0.15790E-02   -0.18116E-02  1402   0.945E-01    0.504E-01
RMM:   4    -0.117883737109E+04   -0.74683E-04   -0.12686E-03  1366   0.139E-01    0.429E-01
RMM:   5    -0.117883736406E+04    0.70338E-05   -0.95283E-04  1326   0.171E-01
  10 F= -.11861510E+04 E0= -.11861510E+04  d E =-.471121E-02  mag=    -0.0000
       N       E                     dE             d eps       ncg     rms          rms(c)
DAV:   1    -0.117883977025E+04   -0.23992E-02   -0.30783E-01  2232   0.130E+00    0.475E-01
RMM:   2    -0.117884070187E+04   -0.93163E-03   -0.12641E-02  2103   0.169E-01    0.537E-01
RMM:   3    -0.117884091258E+04   -0.21071E-03   -0.25229E-03  1317   0.438E-01    0.439E-01
RMM:   4    -0.117884055318E+04    0.35940E-03   -0.30270E-04  1187   0.107E-01    0.314E-01
RMM:   5    -0.117884075515E+04   -0.20197E-03   -0.36220E-03  1846   0.150E-01    0.135E-01
RMM:   6    -0.117884078087E+04   -0.25721E-04   -0.50773E-04  1208   0.117E-01
  11 F= -.11861547E+04 E0= -.11861547E+04  d E =-.369816E-02  mag=     0.0000
       N       E                     dE             d eps       ncg     rms          rms(c)
DAV:   1    -0.117884072579E+04    0.29359E-04   -0.11407E-03  1728   0.142E-01    0.810E-02
RMM:   2    -0.117884066871E+04    0.57078E-04   -0.10173E-04  1052   0.166E-02
  12 F= -.11861546E+04 E0= -.11861546E+04  d E =-.357662E-02  mag=     0.0000
       N       E                     dE             d eps       ncg     rms          rms(c)
DAV:   1    -0.117884137477E+04   -0.64898E-03   -0.11773E-01  2304   0.726E-01    0.993E-02
RMM:   2    -0.117884177152E+04   -0.39675E-03   -0.47698E-03  2101   0.102E-01    0.196E-01
RMM:   3    -0.117884181760E+04   -0.46078E-04   -0.77677E-04  1256   0.243E-01
  13 F= -.11861558E+04 E0= -.11861558E+04  d E =-.122168E-02  mag=     0.0000
       N       E                     dE             d eps       ncg     rms          rms(c)
DAV:   1    -0.117884186685E+04   -0.95327E-04   -0.13983E-02  2232   0.273E-01    0.105E-01
RMM:   2    -0.117884185585E+04    0.10996E-04   -0.62685E-04  1473   0.347E-02
  14 F= -.11861558E+04 E0= -.11861558E+04  d E =-.128542E-02  mag=     0.0000
       N       E                     dE             d eps       ncg     rms          rms(c)
DAV:   1    -0.117884308112E+04   -0.12143E-02   -0.89360E-02  2016   0.495E-01    0.204E-01
RMM:   2    -0.117884312221E+04   -0.41089E-04   -0.25724E-03  1990   0.674E-02    0.206E-01
RMM:   3    -0.117884306277E+04    0.59440E-04   -0.43313E-04  1184   0.187E-01
  15 F= -.11861569E+04 E0= -.11861569E+04  d E =-.104945E-02  mag=     0.0000
       N       E                     dE             d eps       ncg     rms          rms(c)
DAV:   1    -0.117884290294E+04    0.21927E-03   -0.79245E-01  2160   0.144E+00    0.574E-01
RMM:   2    -0.117884363684E+04   -0.73390E-03   -0.18155E-02  2052   0.191E-01    0.884E-01
RMM:   3    -0.117884437853E+04   -0.74169E-03   -0.47609E-03  1340   0.462E-01    0.598E-01
RMM:   4    -0.117884421053E+04    0.16800E-03   -0.36552E-04  1260   0.118E-01    0.607E-01
RMM:   5    -0.117884351867E+04    0.69186E-03   -0.15435E-04  1128   0.124E-01    0.751E-01
RMM:   6    -0.117884297927E+04    0.53940E-03   -0.18649E-04  1212   0.134E-01    0.104E+00
RMM:   7    -0.117884275266E+04    0.22661E-03   -0.92451E-03  2093   0.211E-01    0.456E+00
RMM:   8    -0.117884215186E+04    0.60080E-03   -0.82660E-04  1282   0.966E-02    0.790E-01
RMM:   9    -0.117884243348E+04   -0.28162E-03   -0.46653E-03  1820   0.163E-01    0.544E+00
RMM:  10    -0.117884217326E+04    0.26022E-03   -0.26093E-04  1165   0.111E-01    0.393E+00
RMM:  11    -0.117884198278E+04    0.19048E-03   -0.19522E-04  1135   0.111E-01    0.279E+00
RMM:  12    -0.117884184837E+04    0.13441E-03   -0.10599E-04  1085   0.112E-01    0.161E+00
RMM:  13    -0.117884182515E+04    0.23224E-04   -0.28329E-05  1115   0.150E-01
  16 F= -.11861552E+04 E0= -.11861552E+04  d E =0.647635E-03  mag=     0.0000
       N       E                     dE             d eps       ncg     rms          rms(c)
DAV:   1    -0.117884356410E+04   -0.17157E-02   -0.29847E-01  1764   0.907E-01    0.103E+00
RMM:   2    -0.117884388650E+04   -0.32240E-03   -0.76376E-03  2015   0.132E-01    0.102E+00
RMM:   3    -0.117884385263E+04    0.33872E-04   -0.21011E-03  1314   0.400E-01    0.834E-01
RMM:   4    -0.117884315407E+04    0.69856E-03   -0.24779E-03  1822   0.117E-01    0.288E-01
RMM:   5    -0.117884325569E+04   -0.10162E-03   -0.79286E-04  1378   0.127E-01    0.733E-02
RMM:   6    -0.117884324872E+04    0.69764E-05   -0.42733E-04  1267   0.153E-01
  17 F= -.11861569E+04 E0= -.11861569E+04  d E =-.105292E-02  mag=    -0.0000
       N       E                     dE             d eps       ncg     rms          rms(c)
DAV:   1    -0.117884342338E+04   -0.16769E-03   -0.10060E-01  2088   0.642E-01    0.116E-01
RMM:   2    -0.117884365992E+04   -0.23653E-03   -0.27882E-03  1884   0.883E-02    0.211E-01
RMM:   3    -0.117884370947E+04   -0.49553E-04   -0.93963E-04  1269   0.311E-01
  18 F= -.11861575E+04 E0= -.11861575E+04  d E =-.623834E-03  mag=    -0.0000
       N       E                     dE             d eps       ncg     rms          rms(c)
DAV:   1    -0.117884375994E+04   -0.10002E-03   -0.43607E-03  2304   0.161E-01    0.762E-02
RMM:   2    -0.117884376500E+04   -0.50552E-05   -0.13847E-04  1056   0.182E-02
  19 F= -.11861575E+04 E0= -.11861575E+04  d E =-.646590E-03  mag=    -0.0000
