       N       E                     dE             d eps       ncg     rms          rms(c)
DAV:   1     0.498924007773E+04    0.49892E+04   -0.17067E+05  1800   0.913E+02
DAV:   2    -0.317581310205E+02   -0.50210E+04   -0.45862E+04  2520   0.211E+02
DAV:   3    -0.118067722668E+04   -0.11489E+04   -0.11441E+04  2088   0.112E+02
DAV:   4    -0.122887301950E+04   -0.48196E+02   -0.47992E+02  1944   0.302E+01
DAV:   5    -0.123015508475E+04   -0.12821E+01   -0.12788E+01  2304   0.473E+00    0.607E+01
RMM:   6    -0.121728001875E+04    0.12875E+02   -0.84780E+00  1584   0.362E+00    0.490E+01
RMM:   7    -0.118148688889E+04    0.35793E+02   -0.54811E+01  1584   0.861E+00    0.314E+01
RMM:   8    -0.117376060505E+04    0.77263E+01   -0.79136E+00  1589   0.336E+00    0.253E+01
RMM:   9    -0.116674607940E+04    0.70145E+01   -0.32486E+01  1584   0.654E+00    0.138E+01
RMM:  10    -0.116823856096E+04   -0.14925E+01   -0.54437E+00  1591   0.293E+00    0.958E+00
RMM:  11    -0.116677171631E+04    0.14668E+01   -0.41616E+00  1584   0.173E+00    0.876E+00
RMM:  12    -0.116689869377E+04   -0.12698E+00   -0.28292E-01  1588   0.588E-01    0.830E+00
RMM:  13    -0.116634004193E+04    0.55865E+00   -0.18315E+00  1594   0.809E-01    0.561E+00
RMM:  14    -0.116616087817E+04    0.17916E+00   -0.12311E-01  1584   0.435E-01    0.423E+00
RMM:  15    -0.116623079422E+04   -0.69916E-01   -0.45544E-02  1592   0.192E-01    0.248E+00
RMM:  16    -0.116635118774E+04   -0.12039E+00   -0.29595E-02  1607   0.171E-01    0.290E+00
RMM:  17    -0.116632558533E+04    0.25602E-01   -0.77246E-03  1459   0.695E-02    0.248E+00
RMM:  18    -0.116632248204E+04    0.31033E-02   -0.42101E-04  1126   0.227E-02    0.254E+00
RMM:  19    -0.116633318279E+04   -0.10701E-01   -0.47519E-02  1593   0.204E-01    0.867E-01
RMM:  20    -0.116633895017E+04   -0.57674E-02   -0.10209E-02  1590   0.985E-02    0.229E-01
RMM:  21    -0.116634252252E+04   -0.35723E-02   -0.77951E-04  1231   0.394E-02    0.253E-01
RMM:  22    -0.116634283006E+04   -0.30753E-03   -0.15942E-03  1467   0.436E-02    0.155E-01
RMM:  23    -0.116634324179E+04   -0.41173E-03   -0.79973E-04  1165   0.229E-02    0.295E-01
RMM:  24    -0.116634294172E+04    0.30007E-03   -0.43944E-04  1215   0.285E-02    0.734E-02
RMM:  25    -0.116634304589E+04   -0.10417E-03   -0.71366E-05  1024   0.104E-02    0.929E-02
RMM:  26    -0.116634309766E+04   -0.51765E-04   -0.34993E-05  1013   0.852E-03
   1 F= -.11734446E+04 E0= -.11734411E+04  d E =-.117344E+04  mag=     0.9121
       N       E                     dE             d eps       ncg     rms          rms(c)
DAV:   1    -0.116634085226E+04    0.21936E-02   -0.62925E-01  1692   0.113E+00    0.389E-01
RMM:   2    -0.116634206202E+04   -0.12098E-02   -0.20740E-02  1584   0.180E-01    0.389E-01
RMM:   3    -0.116634155355E+04    0.50846E-03   -0.10109E-03  1427   0.455E-02    0.208E-01
RMM:   4    -0.116634108722E+04    0.46633E-03   -0.50658E-04  1425   0.276E-02    0.154E-01
RMM:   5    -0.116634054153E+04    0.54569E-03   -0.23400E-03  1584   0.535E-02    0.776E-02
RMM:   6    -0.116634055612E+04   -0.14592E-04   -0.13796E-04  1046   0.167E-02
   2 F= -.11734420E+04 E0= -.11734387E+04  d E =0.266113E-02  mag=     0.9123
       N       E                     dE             d eps       ncg     rms          rms(c)
DAV:   1    -0.116634429485E+04   -0.37533E-02   -0.30465E-01  1656   0.783E-01    0.315E-01
RMM:   2    -0.116634467879E+04   -0.38394E-03   -0.89797E-03  1584   0.120E-01    0.298E-01
RMM:   3    -0.116634432080E+04    0.35800E-03   -0.40024E-04  1173   0.293E-02    0.150E-01
RMM:   4    -0.116634400697E+04    0.31382E-03   -0.40523E-04  1230   0.244E-02    0.977E-02
RMM:   5    -0.116634375221E+04    0.25476E-03   -0.11835E-03  1567   0.386E-02    0.405E-02
RMM:   6    -0.116634375691E+04   -0.47034E-05   -0.32588E-05  1000   0.933E-03
   3 F= -.11734452E+04 E0= -.11734419E+04  d E =-.620158E-03  mag=     0.9113
