       N       E                     dE             d eps       ncg     rms          rms(c)
DAV:   1     0.490428600461E+04    0.49043E+04   -0.17600E+05  1872   0.915E+02
DAV:   2    -0.568329181530E+02   -0.49611E+04   -0.45396E+04  2556   0.211E+02
DAV:   3    -0.119275007475E+04   -0.11359E+04   -0.11295E+04  2160   0.111E+02
DAV:   4    -0.123798710745E+04   -0.45237E+02   -0.45019E+02  2088   0.289E+01
DAV:   5    -0.123915859194E+04   -0.11715E+01   -0.11688E+01  2376   0.449E+00    0.100E+02
RMM:   6    -0.123970320571E+04   -0.54461E+00   -0.21112E+02  1950   0.193E+01    0.986E+01
RMM:   7    -0.121981845386E+04    0.19885E+02   -0.10259E+01  1602   0.526E+00    0.723E+01
RMM:   8    -0.118611618192E+04    0.33702E+02   -0.31688E+01  1588   0.811E+00    0.360E+01
RMM:   9    -0.117284837933E+04    0.13268E+02   -0.20592E+01  1588   0.575E+00    0.287E+01
RMM:  10    -0.116147344786E+04    0.11375E+02   -0.22595E+01  1588   0.561E+00    0.198E+01
RMM:  11    -0.116171597830E+04   -0.24253E+00   -0.15268E+01  1593   0.531E+00    0.160E+01
RMM:  12    -0.116183977676E+04   -0.12380E+00   -0.49631E+00  1668   0.280E+00    0.146E+01
RMM:  13    -0.116103492140E+04    0.80486E+00   -0.11963E+00  1632   0.164E+00    0.772E+00
RMM:  14    -0.116092305954E+04    0.11186E+00   -0.10736E+00  1589   0.120E+00    0.666E+00
RMM:  15    -0.116071844004E+04    0.20462E+00   -0.11461E+00  1615   0.131E+00    0.561E+00
RMM:  16    -0.116054921545E+04    0.16922E+00   -0.16737E-01  1674   0.567E-01    0.268E+00
RMM:  17    -0.116053877621E+04    0.10439E-01   -0.58322E-02  1658   0.300E-01    0.165E+00
RMM:  18    -0.116053498711E+04    0.37891E-02   -0.92606E-03  1683   0.124E-01    0.831E-01
RMM:  19    -0.116053534596E+04   -0.35885E-03   -0.27190E-03  1607   0.726E-02    0.464E-01
RMM:  20    -0.116053528447E+04    0.61485E-04   -0.14620E-03  1543   0.452E-02    0.142E-01
RMM:  21    -0.116053524180E+04    0.42674E-04   -0.45261E-04  1259   0.294E-02
   1 F= -.11674980E+04 E0= -.11674980E+04  d E =-.116750E+04  mag=     0.0000
       N       E                     dE             d eps       ncg     rms          rms(c)
DAV:   1    -0.116053381945E+04    0.14650E-02   -0.52584E-01  1764   0.130E+00    0.194E-01
RMM:   2    -0.116053557414E+04   -0.17547E-02   -0.20833E-02  1741   0.231E-01    0.189E-01
RMM:   3    -0.116053543532E+04    0.13882E-03   -0.14349E-03  1662   0.614E-02    0.199E-01
RMM:   4    -0.116053543664E+04   -0.13128E-05   -0.13383E-04  1092   0.177E-02
   2 F= -.11674984E+04 E0= -.11674984E+04  d E =-.412572E-03  mag=     0.0000
       N       E                     dE             d eps       ncg     rms          rms(c)
DAV:   1    -0.116053567052E+04   -0.23520E-03   -0.82871E-02  1656   0.516E-01    0.170E-01
RMM:   2    -0.116053597238E+04   -0.30186E-03   -0.32907E-03  1704   0.932E-02    0.105E-01
RMM:   3    -0.116053594203E+04    0.30348E-04   -0.25946E-04  1121   0.268E-02
   3 F= -.11674988E+04 E0= -.11674988E+04  d E =-.830999E-03  mag=    -0.0000
