       N       E                     dE             d eps       ncg     rms          rms(c)
DAV:   1     0.517222380464E+04    0.51722E+04   -0.17746E+05  1772   0.995E+02
DAV:   2     0.938011187010E+02   -0.50784E+04   -0.46298E+04  2320   0.227E+02
DAV:   3    -0.119220616630E+04   -0.12860E+04   -0.12732E+04  1920   0.122E+02
DAV:   4    -0.125270126072E+04   -0.60495E+02   -0.59993E+02  1880   0.347E+01
DAV:   5    -0.125419051143E+04   -0.14893E+01   -0.14811E+01  2024   0.497E+00    0.679E+01
RMM:   6    -0.123787741855E+04    0.16313E+02   -0.90532E+00  1489   0.365E+00    0.555E+01
RMM:   7    -0.121314663622E+04    0.24731E+02   -0.95383E+01  1524   0.118E+01    0.428E+01
RMM:   8    -0.120602374399E+04    0.71229E+01   -0.84891E+00  1510   0.469E+00    0.384E+01
RMM:   9    -0.119867035780E+04    0.73534E+01   -0.24422E+00  1520   0.231E+00    0.363E+01
RMM:  10    -0.119259446537E+04    0.60759E+01   -0.42293E+01  1703   0.590E+00    0.232E+01
RMM:  11    -0.120116698988E+04   -0.85725E+01   -0.12864E+01  1560   0.414E+00    0.220E+01
RMM:  12    -0.119684278708E+04    0.43242E+01   -0.85983E+00  1533   0.316E+00    0.141E+01
RMM:  13    -0.119322877705E+04    0.36140E+01   -0.26687E+00  1545   0.151E+00    0.114E+01
RMM:  14    -0.118856908730E+04    0.46597E+01   -0.43737E+00  1592   0.149E+00    0.642E+00
RMM:  15    -0.118725561721E+04    0.13135E+01   -0.49562E-01  1523   0.779E-01    0.493E+00
RMM:  16    -0.118897062243E+04   -0.17150E+01   -0.90441E-01  1549   0.959E-01    0.222E+01
RMM:  17    -0.118799411122E+04    0.97651E+00   -0.63911E-02  1521   0.403E-01    0.221E+01
RMM:  18    -0.118613511022E+04    0.18590E+01   -0.40900E-02  1690   0.208E-01    0.210E+01
RMM:  19    -0.118581378692E+04    0.32132E+00   -0.73447E-03  1630   0.818E-02    0.150E+01
RMM:  20    -0.118627325538E+04   -0.45947E+00   -0.58977E-03  1622   0.752E-02    0.210E+01
RMM:  21    -0.118639276514E+04   -0.11951E+00   -0.24019E-03  1517   0.513E-02    0.217E+01
RMM:  22    -0.118600165804E+04    0.39111E+00   -0.11979E-03  1512   0.263E-02    0.178E+01
RMM:  23    -0.118597832268E+04    0.23335E-01   -0.74459E-04  1507   0.253E-02    0.163E+01
RMM:  24    -0.118567787429E+04    0.30045E+00   -0.63611E-03  1752   0.501E-02    0.118E+01
RMM:  25    -0.118566546335E+04    0.12411E-01   -0.23433E-03  1615   0.506E-02    0.943E+00
RMM:  26    -0.118567734492E+04   -0.11882E-01   -0.15104E-03  1562   0.384E-02    0.901E+00
RMM:  27    -0.118562799835E+04    0.49347E-01   -0.14760E-02  2377   0.803E-02    0.944E+00
RMM:  28    -0.118583963572E+04   -0.21164E+00   -0.74186E-03  2388   0.839E-02    0.132E+01
RMM:  29    -0.118587309822E+04   -0.33462E-01   -0.37611E-03  2299   0.659E-02    0.170E+01
RMM:  30    -0.118714904698E+04   -0.12759E+01   -0.77443E-02  2560   0.282E-01    0.212E+01
RMM:  31    -0.118648403247E+04    0.66501E+00   -0.19042E-02  2540   0.117E-01    0.208E+01
RMM:  32    -0.118562221387E+04    0.86182E+00   -0.49163E-02  2434   0.946E-02    0.106E+01
RMM:  33    -0.118555284431E+04    0.69370E-01   -0.13186E-02  2361   0.907E-02    0.846E+00
RMM:  34    -0.118566656099E+04   -0.11372E+00   -0.28614E-03  1990   0.389E-02    0.110E+01
RMM:  35    -0.118551337691E+04    0.15318E+00   -0.29459E-03  2192   0.462E-02    0.856E+00
RMM:  36    -0.118549844530E+04    0.14932E-01   -0.37155E-03  1844   0.405E-02    0.490E+00
RMM:  37    -0.118557098972E+04   -0.72544E-01   -0.29825E-03  1877   0.573E-02    0.732E+00
RMM:  38    -0.118550776731E+04    0.63222E-01   -0.17811E-03  1574   0.287E-02    0.648E+00
RMM:  39    -0.118550139589E+04    0.63714E-02   -0.82500E-03  2239   0.490E-02    0.349E+00
RMM:  40    -0.118559897831E+04   -0.97582E-01   -0.86735E-03  2109   0.766E-02    0.322E+00
RMM:  41    -0.118559348930E+04    0.54890E-02   -0.40049E-03  2309   0.628E-02    0.324E+00
RMM:  42    -0.118558800999E+04    0.54793E-02   -0.37869E-03  2227   0.456E-02    0.557E+00
RMM:  43    -0.118557451919E+04    0.13491E-01   -0.21032E-03  1812   0.467E-02    0.316E+00
RMM:  44    -0.118558044432E+04   -0.59251E-02   -0.86064E-04  1864   0.347E-02    0.507E+00
RMM:  45    -0.118557564015E+04    0.48042E-02   -0.53310E-04  1631   0.273E-02    0.500E+00
RMM:  46    -0.118559740179E+04   -0.21762E-01   -0.34476E-03  2232   0.399E-02    0.336E+00
RMM:  47    -0.118561593162E+04   -0.18530E-01   -0.72077E-04  1617   0.208E-02    0.332E+00
RMM:  48    -0.118564802752E+04   -0.32096E-01   -0.37136E-03  2037   0.285E-02    0.224E+00
RMM:  49    -0.118567502345E+04   -0.26996E-01   -0.31749E-03  1912   0.278E-02    0.199E+00
RMM:  50    -0.118568943056E+04   -0.14407E-01   -0.84758E-04  1669   0.169E-02    0.184E+00
RMM:  51    -0.118569718395E+04   -0.77534E-02   -0.70870E-04  1722   0.143E-02    0.256E+00
RMM:  52    -0.118569749699E+04   -0.31304E-03   -0.35116E-04  1550   0.149E-02    0.219E+00
RMM:  53    -0.118569764933E+04   -0.15234E-03   -0.40812E-05  1335   0.512E-03    0.217E+00
RMM:  54    -0.118570486947E+04   -0.72201E-02   -0.61198E-04  1569   0.991E-03    0.170E+00
RMM:  55    -0.118571458463E+04   -0.97152E-02   -0.76551E-04  1863   0.151E-02    0.157E+00
RMM:  56    -0.118571290641E+04    0.16782E-02   -0.13167E-04  2026   0.127E-02    0.154E+00
RMM:  57    -0.118571315368E+04   -0.24727E-03   -0.30543E-05  1246   0.659E-03    0.154E+00
RMM:  58    -0.118571094448E+04    0.22092E-02   -0.62569E-05  1195   0.484E-03    0.155E+00
RMM:  59    -0.118570638200E+04    0.45625E-02   -0.37470E-04  1972   0.144E-02    0.167E+00
RMM:  60    -0.118570041076E+04    0.59712E-02   -0.67956E-04  2409   0.244E-02    0.178E+00
RMM:  61    -0.118568456765E+04    0.15843E-01   -0.37202E-03  2463   0.357E-02    0.406E+00
RMM:  62    -0.118567468318E+04    0.98845E-02   -0.43266E-04  1940   0.221E-02    0.371E+00
RMM:  63    -0.118567669853E+04   -0.20154E-02   -0.41407E-05  1352   0.518E-03    0.372E+00
RMM:  64    -0.118567435459E+04    0.23439E-02   -0.14360E-05  1248   0.400E-03    0.363E+00
RMM:  65    -0.118567474700E+04   -0.39241E-03   -0.57972E-05  1803   0.958E-03    0.350E+00
RMM:  66    -0.118567479656E+04   -0.49568E-04   -0.77018E-04  2535   0.344E-02    0.399E+00
RMM:  67    -0.118567248134E+04    0.23152E-02   -0.60893E-05  1694   0.961E-03    0.399E+00
RMM:  68    -0.118567209385E+04    0.38749E-03   -0.41369E-06  1061   0.235E-03    0.399E+00
RMM:  69    -0.118567432026E+04   -0.22264E-02   -0.22082E-05  1033   0.233E-03    0.401E+00
RMM:  70    -0.118567669444E+04   -0.23742E-02   -0.32041E-05  1164   0.358E-03    0.402E+00
RMM:  71    -0.118571807008E+04   -0.41376E-01   -0.98256E-03  2552   0.440E-02    0.401E+00
RMM:  72    -0.118571623661E+04    0.18335E-02   -0.33671E-04  2074   0.152E-02    0.384E+00
RMM:  73    -0.118572716577E+04   -0.10929E-01   -0.10055E-03  2455   0.275E-02    0.386E+00
RMM:  74    -0.118573068430E+04   -0.35185E-02   -0.98326E-04  2448   0.284E-02    0.332E+00
RMM:  75    -0.118574326937E+04   -0.12585E-01   -0.19619E-03  2403   0.266E-02    0.299E+00
RMM:  76    -0.118575088071E+04   -0.76113E-02   -0.86621E-02  2552   0.155E-01    0.131E+00
RMM:  77    -0.118575407499E+04   -0.31943E-02   -0.24709E-03  2430   0.362E-02    0.983E-01
RMM:  78    -0.118575433293E+04   -0.25794E-03   -0.23951E-04  1771   0.135E-02    0.103E+00
RMM:  79    -0.118575312306E+04    0.12099E-02   -0.16576E-04  1838   0.112E-02    0.102E+00
RMM:  80    -0.118575285327E+04    0.26978E-03   -0.27559E-03  2548   0.704E-02    0.133E+00
RMM:  81    -0.118575196556E+04    0.88771E-03   -0.32566E-04  2296   0.229E-02    0.109E+00
RMM:  82    -0.118575260089E+04   -0.63533E-03   -0.78526E-04  2521   0.347E-02    0.114E+00
RMM:  83    -0.118575262368E+04   -0.22789E-04   -0.36514E-04  2386   0.254E-02    0.113E+00
RMM:  84    -0.118575229762E+04    0.32606E-03   -0.84929E-05  1932   0.118E-02    0.109E+00
RMM:  85    -0.118575299424E+04   -0.69661E-03   -0.74745E-06  1077   0.265E-03    0.109E+00
RMM:  86    -0.118575471796E+04   -0.17237E-02   -0.40169E-02  2551   0.174E-01    0.163E+00
RMM:  87    -0.118575603599E+04   -0.13180E-02   -0.15078E-03  2490   0.490E-02    0.193E+00
RMM:  88    -0.118575173879E+04    0.42972E-02   -0.20649E-03  2550   0.558E-02    0.174E+00
RMM:  89    -0.118574865178E+04    0.30870E-02   -0.19147E-03  2545   0.385E-02    0.117E+00
RMM:  90    -0.118575674052E+04   -0.80887E-02   -0.70902E-04  2483   0.257E-02    0.782E-01
RMM:  91    -0.118575963786E+04   -0.28973E-02   -0.46170E-04  2278   0.167E-02    0.498E-01
RMM:  92    -0.118576293478E+04   -0.32969E-02   -0.64952E-04  2304   0.204E-02    0.585E-01
RMM:  93    -0.118576577689E+04   -0.28421E-02   -0.43564E-04  2359   0.260E-02    0.427E-01
RMM:  94    -0.118576564791E+04    0.12898E-03   -0.12555E-04  2208   0.135E-02    0.298E-01
RMM:  95    -0.118576605163E+04   -0.40372E-03   -0.68978E-05  2021   0.105E-02    0.258E-01
RMM:  96    -0.118576622875E+04   -0.17711E-03   -0.42407E-05  1844   0.726E-03    0.217E-01
RMM:  97    -0.118576628076E+04   -0.52015E-04   -0.46693E-05  1881   0.817E-03    0.221E-01
RMM:  98    -0.118576631928E+04   -0.38518E-04   -0.19427E-05  1235   0.446E-03    0.225E-01
RMM:  99    -0.118576631589E+04    0.33927E-05   -0.54209E-06  1128   0.309E-03    0.224E-01
RMM: 100    -0.118576633727E+04   -0.21384E-04   -0.32765E-06  1082   0.243E-03
   1 F= -.11930681E+04 E0= -.11930488E+04  d E =-.119307E+04  mag=    -1.3789
       N       E                     dE             d eps       ncg     rms          rms(c)
DAV:   1    -0.118579065576E+04   -0.24340E-01   -0.42018E-01  1634   0.450E-01    0.407E+00
RMM:   2    -0.118638736490E+04   -0.59671E+00   -0.16105E-01  1496   0.181E-01    0.121E+01
RMM:   3    -0.118575253007E+04    0.63483E+00   -0.57969E-02  1489   0.136E-01    0.580E+00
RMM:   4    -0.118573832012E+04    0.14210E-01   -0.13462E-02  1500   0.618E-02    0.215E+00
RMM:   5    -0.118582637621E+04   -0.88056E-01   -0.22677E-02  1522   0.665E-02    0.612E+00
RMM:   6    -0.118583422185E+04   -0.78456E-02   -0.33263E-03  1521   0.650E-02    0.618E+00
RMM:   7    -0.118576507931E+04    0.69143E-01   -0.91170E-03  1625   0.896E-02    0.433E+00
RMM:   8    -0.118577811359E+04   -0.13034E-01   -0.74429E-04  1618   0.344E-02    0.479E+00
RMM:   9    -0.118577681919E+04    0.12944E-02   -0.99886E-05  1755   0.127E-02    0.478E+00
RMM:  10    -0.118576677848E+04    0.10041E-01   -0.25974E-04  1557   0.118E-02    0.399E+00
RMM:  11    -0.118577897217E+04   -0.12194E-01   -0.23230E-04  1541   0.123E-02    0.460E+00
RMM:  12    -0.118576375656E+04    0.15216E-01   -0.54897E-04  2054   0.273E-02    0.320E+00
RMM:  13    -0.118575952741E+04    0.42291E-02   -0.30489E-03  2300   0.441E-02    0.670E-01
RMM:  14    -0.118577387342E+04   -0.14346E-01   -0.15455E-03  2199   0.408E-02    0.127E+00
RMM:  15    -0.118577195279E+04    0.19206E-02   -0.43376E-04  1900   0.239E-02    0.126E+00
RMM:  16    -0.118577019736E+04    0.17554E-02   -0.99678E-04  2345   0.361E-02    0.275E-01
RMM:  17    -0.118577311297E+04   -0.29156E-02   -0.45585E-04  1872   0.222E-02    0.974E-01
RMM:  18    -0.118577203592E+04    0.10770E-02   -0.36878E-04  2101   0.236E-02    0.115E+00
RMM:  19    -0.118576952822E+04    0.25077E-02   -0.56485E-04  2254   0.299E-02    0.969E-01
RMM:  20    -0.118577180109E+04   -0.22729E-02   -0.60477E-04  2248   0.356E-02    0.903E-01
RMM:  21    -0.118577286744E+04   -0.10664E-02   -0.90904E-04  2318   0.379E-02    0.807E-01
RMM:  22    -0.118577322758E+04   -0.36013E-03   -0.80965E-04  2214   0.298E-02    0.441E-01
RMM:  23    -0.118577441147E+04   -0.11839E-02   -0.13094E-04  1540   0.157E-02    0.347E-01
RMM:  24    -0.118577421994E+04    0.19153E-03   -0.27820E-05  1548   0.693E-03    0.167E-01
RMM:  25    -0.118577436121E+04   -0.14127E-03   -0.35784E-05  1634   0.785E-03    0.448E-02
RMM:  26    -0.118577452399E+04   -0.16278E-03   -0.56666E-05  1743   0.993E-03    0.546E-02
RMM:  27    -0.118577453596E+04   -0.11975E-04   -0.16106E-05  1595   0.527E-03    0.139E-01
RMM:  28    -0.118577446539E+04    0.70570E-04   -0.88020E-06  1281   0.370E-03    0.744E-02
RMM:  29    -0.118577448741E+04   -0.22015E-04   -0.21112E-06   981   0.210E-03    0.331E-02
RMM:  30    -0.118577452045E+04   -0.33040E-04   -0.24260E-06   971   0.161E-03    0.821E-03
RMM:  31    -0.118577454908E+04   -0.28633E-04   -0.10394E-06   956   0.100E-03    0.114E-02
RMM:  32    -0.118577455334E+04   -0.42562E-05   -0.26262E-07   912   0.645E-04    0.566E-03
RMM:  33    -0.118577455441E+04   -0.10757E-05   -0.41640E-08   515   0.354E-04    0.814E-03
RMM:  34    -0.118577455721E+04   -0.27949E-05   -0.91702E-08   681   0.451E-04    0.721E-03
RMM:  35    -0.118577455831E+04   -0.11024E-05   -0.12152E-07   888   0.524E-04    0.601E-03
RMM:  36    -0.118577455889E+04   -0.58045E-06   -0.11809E-08   438   0.290E-04
   2 F= -.11930761E+04 E0= -.11930567E+04  d E =-.798449E-02  mag=    -1.3833
       N       E                     dE             d eps       ncg     rms          rms(c)
DAV:   1    -0.118577506907E+04   -0.51075E-03   -0.73050E-03  1672   0.584E-02    0.581E-01
RMM:   2    -0.118579394394E+04   -0.18875E-01   -0.37794E-03  1496   0.272E-02    0.381E+00
RMM:   3    -0.118576538113E+04    0.28563E-01   -0.18750E-03  1485   0.312E-02    0.293E-01
RMM:   4    -0.118577337047E+04   -0.79893E-02   -0.64904E-04  1397   0.191E-02    0.467E-02
RMM:   5    -0.118577458711E+04   -0.12166E-02   -0.18544E-04  1218   0.909E-03    0.789E-02
RMM:   6    -0.118577456810E+04    0.19009E-04   -0.33494E-05  1030   0.337E-03    0.299E-02
RMM:   7    -0.118577472285E+04   -0.15475E-03   -0.13960E-05   960   0.212E-03    0.541E-02
RMM:   8    -0.118577471672E+04    0.61327E-05   -0.39518E-06   801   0.121E-03    0.578E-02
RMM:   9    -0.118577473303E+04   -0.16304E-04   -0.37710E-06  1018   0.197E-03    0.197E-02
RMM:  10    -0.118577475453E+04   -0.21505E-04   -0.54869E-06  1038   0.230E-03    0.791E-02
RMM:  11    -0.118577472182E+04    0.32707E-04   -0.57352E-06   949   0.183E-03    0.323E-02
RMM:  12    -0.118577474997E+04   -0.28150E-04   -0.42347E-06   948   0.170E-03    0.123E-02
RMM:  13    -0.118577476028E+04   -0.10311E-04   -0.59574E-07   818   0.783E-04    0.150E-02
RMM:  14    -0.118577475868E+04    0.15998E-05   -0.38706E-07   775   0.587E-04    0.703E-03
RMM:  15    -0.118577476074E+04   -0.20566E-05   -0.92574E-08   472   0.359E-04    0.299E-03
RMM:  16    -0.118577476190E+04   -0.11611E-05   -0.60321E-08   398   0.325E-04    0.566E-04
RMM:  17    -0.118577476239E+04   -0.49023E-06   -0.18257E-08   356   0.282E-04
   3 F= -.11930763E+04 E0= -.11930569E+04  d E =-.815698E-02  mag=    -1.3831
       N       E                     dE             d eps       ncg     rms          rms(c)
DAV:   1    -0.118577484524E+04   -0.83337E-04   -0.12817E-03  1664   0.245E-02    0.241E-01
RMM:   2    -0.118577849088E+04   -0.36456E-02   -0.64656E-04  1486   0.115E-02    0.185E+00
RMM:   3    -0.118577073155E+04    0.77593E-02   -0.47317E-04  1416   0.174E-02    0.137E-01
RMM:   4    -0.118577425862E+04   -0.35271E-02   -0.24811E-04  1188   0.112E-02    0.559E-02
RMM:   5    -0.118577466314E+04   -0.40452E-03   -0.68985E-05  1062   0.545E-03    0.139E-01
RMM:   6    -0.118577470021E+04   -0.37067E-04   -0.22606E-05   947   0.345E-03    0.264E-02
RMM:   7    -0.118577477395E+04   -0.73744E-04   -0.50048E-06   701   0.131E-03    0.227E-02
RMM:   8    -0.118577478449E+04   -0.10537E-04   -0.13537E-06   717   0.792E-04    0.336E-02
RMM:   9    -0.118577476551E+04    0.18983E-04   -0.19967E-06   915   0.116E-03    0.184E-02
RMM:  10    -0.118577478015E+04   -0.14644E-04   -0.79787E-07   896   0.730E-04    0.226E-02
RMM:  11    -0.118577477823E+04    0.19264E-05   -0.55581E-07   544   0.502E-04    0.620E-03
RMM:  12    -0.118577479051E+04   -0.12287E-04   -0.45102E-07   613   0.599E-04    0.564E-03
RMM:  13    -0.118577479037E+04    0.14025E-06   -0.15678E-08   371   0.303E-04
   4 F= -.11930763E+04 E0= -.11930569E+04  d E =-.817200E-02  mag=    -1.3831
       N       E                     dE             d eps       ncg     rms          rms(c)
DAV:   1    -0.118577478965E+04    0.86436E-06   -0.66084E-06  1120   0.183E-03    0.191E-02
RMM:   2    -0.118577481336E+04   -0.23712E-04   -0.40937E-06   869   0.966E-04    0.166E-01
RMM:   3    -0.118577469072E+04    0.12264E-03   -0.72857E-06   863   0.205E-03    0.624E-03
RMM:   4    -0.118577477977E+04   -0.89050E-04   -0.38028E-06   633   0.133E-03    0.455E-03
RMM:   5    -0.118577478882E+04   -0.90439E-05   -0.60850E-07   514   0.656E-04    0.216E-03
RMM:   6    -0.118577479034E+04   -0.15206E-05   -0.70646E-08   371   0.306E-04    0.799E-04
RMM:   7    -0.118577479053E+04   -0.19631E-06   -0.23560E-08   314   0.248E-04    0.804E-04
RMM:   8    -0.118577479044E+04    0.96166E-07   -0.55909E-09   297   0.237E-04
   5 F= -.11930763E+04 E0= -.11930569E+04  d E =-.817300E-02  mag=    -1.3830
       N       E                     dE             d eps       ncg     rms          rms(c)
DAV:   1    -0.118577502309E+04   -0.23256E-03   -0.61284E-03  1536   0.120E-01    0.124E-01
RMM:   2    -0.118577601860E+04   -0.99551E-03   -0.29373E-04  1504   0.186E-02    0.102E+00
RMM:   3    -0.118577374359E+04    0.22750E-02   -0.16115E-04  1475   0.135E-02    0.672E-02
RMM:   4    -0.118577482350E+04   -0.10799E-02   -0.68206E-05  1207   0.794E-03    0.625E-02
RMM:   5    -0.118577493924E+04   -0.11574E-03   -0.20329E-05  1008   0.367E-03    0.268E-02
RMM:   6    -0.118577499116E+04   -0.51919E-04   -0.61575E-06  1003   0.259E-03    0.422E-02
RMM:   7    -0.118577499121E+04   -0.51565E-07   -0.27670E-06   953   0.183E-03    0.437E-02
RMM:   8    -0.118577496506E+04    0.26151E-04   -0.23740E-05  1574   0.538E-03    0.477E-02
RMM:   9    -0.118577498977E+04   -0.24705E-04   -0.55971E-06   969   0.254E-03    0.241E-02
RMM:  10    -0.118577499122E+04   -0.14560E-05   -0.16408E-06   931   0.128E-03    0.564E-03
RMM:  11    -0.118577499808E+04   -0.68532E-05   -0.35206E-07   903   0.803E-04    0.297E-03
RMM:  12    -0.118577499982E+04   -0.17391E-05   -0.20564E-07   828   0.558E-04    0.256E-03
RMM:  13    -0.118577499984E+04   -0.29810E-07   -0.56023E-08   575   0.392E-04
   6 F= -.11930765E+04 E0= -.11930571E+04  d E =-.174689E-03  mag=    -1.3832
       N       E                     dE             d eps       ncg     rms          rms(c)
DAV:   1    -0.118577559235E+04   -0.59254E-03   -0.55153E-02  1512   0.361E-01    0.380E-01
RMM:   2    -0.118578416683E+04   -0.85745E-02   -0.27092E-03  1504   0.557E-02    0.265E+00
RMM:   3    -0.118576937392E+04    0.14793E-01   -0.10313E-03  1495   0.340E-02    0.259E-01
RMM:   4    -0.118577461342E+04   -0.52395E-02   -0.45186E-04  1594   0.196E-02    0.179E-01
RMM:   5    -0.118577514210E+04   -0.52868E-03   -0.11188E-04  1368   0.931E-03    0.125E-01
RMM:   6    -0.118577535604E+04   -0.21393E-03   -0.22078E-05  1208   0.491E-03    0.115E-01
RMM:   7    -0.118577522770E+04    0.12833E-03   -0.20010E-05  1105   0.357E-03    0.147E-01
RMM:   8    -0.118577528939E+04   -0.61686E-04   -0.85716E-05  1869   0.105E-02    0.434E-02
RMM:   9    -0.118577539840E+04   -0.10902E-03   -0.10549E-04  2026   0.123E-02    0.134E-01
RMM:  10    -0.118577532968E+04    0.68721E-04   -0.10303E-05  1161   0.372E-03    0.385E-02
RMM:  11    -0.118577537997E+04   -0.50284E-04   -0.97679E-06  1219   0.313E-03    0.256E-02
RMM:  12    -0.118577539421E+04   -0.14243E-04   -0.24411E-06   965   0.186E-03    0.156E-02
RMM:  13    -0.118577539431E+04   -0.10098E-06   -0.88270E-07   921   0.132E-03
   7 F= -.11930768E+04 E0= -.11930574E+04  d E =-.465695E-03  mag=    -1.3838
       N       E                     dE             d eps       ncg     rms          rms(c)
DAV:   1    -0.118577553829E+04   -0.14408E-03   -0.37551E-03  1600   0.906E-02    0.442E-02
RMM:   2    -0.118577565777E+04   -0.11949E-03   -0.96733E-05  1511   0.128E-02    0.364E-01
RMM:   3    -0.118577517485E+04    0.48293E-03   -0.37779E-05  1269   0.749E-03    0.272E-02
RMM:   4    -0.118577548907E+04   -0.31423E-03   -0.19675E-05  1042   0.425E-03    0.225E-02
RMM:   5    -0.118577551582E+04   -0.26748E-04   -0.27195E-06   945   0.183E-03    0.147E-02
RMM:   6    -0.118577553566E+04   -0.19840E-04   -0.28604E-06   969   0.200E-03    0.411E-02
RMM:   7    -0.118577551766E+04    0.18007E-04   -0.10943E-06   922   0.124E-03    0.409E-02
RMM:   8    -0.118577549717E+04    0.20490E-04   -0.70658E-06  1167   0.282E-03    0.165E-02
RMM:   9    -0.118577553578E+04   -0.38618E-04   -0.26448E-06   921   0.162E-03    0.161E-02
RMM:  10    -0.118577553198E+04    0.38063E-05   -0.34048E-07   889   0.727E-04    0.585E-03
RMM:  11    -0.118577553582E+04   -0.38381E-05   -0.17882E-07   704   0.519E-04    0.390E-03
RMM:  12    -0.118577553661E+04   -0.79098E-06   -0.10586E-07   628   0.411E-04
   8 F= -.11930769E+04 E0= -.11930575E+04  d E =-.139572E-03  mag=    -1.3837
       N       E                     dE             d eps       ncg     rms          rms(c)
DAV:   1    -0.118577588165E+04   -0.34583E-03   -0.33755E-02  1504   0.271E-01    0.148E-01
RMM:   2    -0.118577724244E+04   -0.13608E-02   -0.91672E-04  1511   0.386E-02    0.116E+00
RMM:   3    -0.118577415437E+04    0.30881E-02   -0.25266E-04  1512   0.210E-02    0.768E-02
RMM:   4    -0.118577563220E+04   -0.14778E-02   -0.94263E-05  1539   0.115E-02    0.428E-02
RMM:   5    -0.118577587521E+04   -0.24301E-03   -0.25758E-05  1191   0.533E-03    0.579E-02
RMM:   6    -0.118577579418E+04    0.81031E-04   -0.54520E-05  1492   0.889E-03    0.112E-01
RMM:   7    -0.118577580150E+04   -0.73233E-05   -0.11721E-05  1274   0.451E-03    0.106E-01
RMM:   8    -0.118577570453E+04    0.96969E-04   -0.12435E-05  1426   0.374E-03    0.192E-02
RMM:   9    -0.118577585818E+04   -0.15365E-03   -0.10211E-05  1070   0.321E-03    0.304E-02
RMM:  10    -0.118577585946E+04   -0.12746E-05   -0.36166E-06  1049   0.234E-03    0.133E-02
RMM:  11    -0.118577586965E+04   -0.10188E-04   -0.12417E-06   951   0.138E-03    0.226E-02
RMM:  12    -0.118577586611E+04    0.35324E-05   -0.14413E-06   926   0.108E-03    0.391E-03
RMM:  13    -0.118577587111E+04   -0.49960E-05   -0.21910E-07   810   0.631E-04    0.167E-03
RMM:  14    -0.118577587151E+04   -0.40420E-06   -0.12676E-07   764   0.494E-04
   9 F= -.11930772E+04 E0= -.11930579E+04  d E =-.466574E-03  mag=    -1.3839
       N       E                     dE             d eps       ncg     rms          rms(c)
DAV:   1    -0.118577620958E+04   -0.33847E-03   -0.13501E-01  1490   0.543E-01    0.296E-01
RMM:   2    -0.118578140589E+04   -0.51963E-02   -0.36669E-03  1510   0.770E-02    0.212E+00
RMM:   3    -0.118577133200E+04    0.10074E-01   -0.90016E-04  1514   0.394E-02    0.197E-01
RMM:   4    -0.118577566874E+04   -0.43367E-02   -0.41478E-04  1588   0.218E-02    0.101E-01
RMM:   5    -0.118577623521E+04   -0.56647E-03   -0.68682E-05  1512   0.988E-03    0.120E-01
RMM:   6    -0.118577611082E+04    0.12439E-03   -0.55368E-05  1486   0.920E-03    0.328E-01
RMM:   7    -0.118577568841E+04    0.42241E-03   -0.16910E-04  1520   0.147E-02    0.127E-01
RMM:   8    -0.118577590966E+04   -0.22125E-03   -0.76508E-05  1503   0.100E-02    0.192E-01
RMM:   9    -0.118577607957E+04   -0.16991E-03   -0.26550E-05  1292   0.538E-03    0.136E-01
RMM:  10    -0.118577602948E+04    0.50096E-04   -0.15401E-05  1275   0.399E-03    0.503E-02
RMM:  11    -0.118577613273E+04   -0.10326E-03   -0.12143E-05  1056   0.317E-03    0.113E-02
RMM:  12    -0.118577617704E+04   -0.44304E-04   -0.59693E-06  1004   0.233E-03    0.157E-02
RMM:  13    -0.118577617182E+04    0.52170E-05   -0.14212E-06   940   0.154E-03    0.130E-02
RMM:  14    -0.118577617677E+04   -0.49509E-05   -0.53723E-07   917   0.864E-04    0.572E-03
RMM:  15    -0.118577617860E+04   -0.18328E-05   -0.24656E-07   852   0.558E-04    0.374E-03
RMM:  16    -0.118577617897E+04   -0.36276E-06   -0.26463E-08   434   0.326E-04
  10 F= -.11930775E+04 E0= -.11930582E+04  d E =-.759542E-03  mag=    -1.3845
       N       E                     dE             d eps       ncg     rms          rms(c)
DAV:   1    -0.118577630159E+04   -0.12299E-03   -0.78620E-03  1544   0.123E-01    0.652E-02
RMM:   2    -0.118577656206E+04   -0.26047E-03   -0.20423E-04  1527   0.174E-02    0.527E-01
RMM:   3    -0.118577575918E+04    0.80288E-03   -0.71363E-05  1378   0.103E-02    0.269E-02
RMM:   4    -0.118577624552E+04   -0.48635E-03   -0.36709E-05  1120   0.584E-03    0.235E-02
RMM:   5    -0.118577629704E+04   -0.51521E-04   -0.58712E-06   990   0.255E-03    0.233E-02
RMM:   6    -0.118577629859E+04   -0.15438E-05   -0.10147E-06   936   0.116E-03    0.182E-02
RMM:   7    -0.118577630031E+04   -0.17201E-05   -0.41424E-07   920   0.826E-04    0.241E-02
RMM:   8    -0.118577628896E+04    0.11348E-04   -0.75591E-06  1294   0.316E-03    0.262E-02
RMM:   9    -0.118577630187E+04   -0.12913E-04   -0.18292E-06   946   0.167E-03    0.142E-02
RMM:  10    -0.118577630637E+04   -0.44925E-05   -0.74611E-07   914   0.912E-04    0.790E-03
RMM:  11    -0.118577630786E+04   -0.14981E-05   -0.16152E-07   703   0.572E-04    0.862E-03
RMM:  12    -0.118577630712E+04    0.73952E-06   -0.83412E-08   575   0.397E-04
  11 F= -.11930776E+04 E0= -.11930583E+04  d E =-.129165E-03  mag=    -1.3847
       N       E                     dE             d eps       ncg     rms          rms(c)
DAV:   1    -0.118577659210E+04   -0.28423E-03   -0.70832E-02  1490   0.370E-01    0.195E-01
RMM:   2    -0.118577890864E+04   -0.23165E-02   -0.18357E-03  1528   0.522E-02    0.147E+00
RMM:   3    -0.118577374591E+04    0.51627E-02   -0.42327E-04  1509   0.272E-02    0.965E-02
RMM:   4    -0.118577625404E+04   -0.25081E-02   -0.17424E-04  1566   0.151E-02    0.823E-02
RMM:   5    -0.118577658373E+04   -0.32969E-03   -0.48275E-05  1216   0.649E-03    0.966E-02
RMM:   6    -0.118577665437E+04   -0.70635E-04   -0.24546E-05  1480   0.540E-03    0.126E-01
RMM:   7    -0.118577659353E+04    0.60833E-04   -0.36249E-05  1506   0.700E-03    0.782E-02
RMM:   8    -0.118577650597E+04    0.87566E-04   -0.30810E-05  1512   0.553E-03    0.130E-01
RMM:   9    -0.118577657655E+04   -0.70580E-04   -0.13618E-05  1188   0.390E-03    0.327E-02
RMM:  10    -0.118577664703E+04   -0.70482E-04   -0.69344E-06  1021   0.261E-03    0.129E-02
RMM:  11    -0.118577666267E+04   -0.15636E-04   -0.16801E-06   969   0.132E-03    0.780E-03
RMM:  12    -0.118577666839E+04   -0.57224E-05   -0.59403E-07   923   0.959E-04    0.702E-03
RMM:  13    -0.118577666736E+04    0.10244E-05   -0.41911E-07   903   0.849E-04    0.248E-03
RMM:  14    -0.118577666930E+04   -0.19305E-05   -0.81422E-08   578   0.429E-04    0.211E-03
RMM:  15    -0.118577666962E+04   -0.32799E-06   -0.29916E-08   497   0.363E-04
  12 F= -.11930780E+04 E0= -.11930587E+04  d E =-.495081E-03  mag=    -1.3849
       N       E                     dE             d eps       ncg     rms          rms(c)
DAV:   1    -0.118577695634E+04   -0.28704E-03   -0.28299E-01  1490   0.740E-01    0.388E-01
RMM:   2    -0.118578557684E+04   -0.86205E-02   -0.73100E-03  1528   0.104E-01    0.257E+00
RMM:   3    -0.118577102388E+04    0.14553E-01   -0.14635E-03  1512   0.505E-02    0.216E-01
RMM:   4    -0.118577655651E+04   -0.55326E-02   -0.55736E-04  1645   0.266E-02    0.160E-01
RMM:   5    -0.118577699822E+04   -0.44171E-03   -0.10382E-04  1548   0.117E-02    0.210E-01
RMM:   6    -0.118577722308E+04   -0.22486E-03   -0.60560E-05  1488   0.912E-03    0.214E-01
RMM:   7    -0.118577713483E+04    0.88255E-04   -0.18567E-04  1533   0.162E-02    0.106E-01
RMM:   8    -0.118577719433E+04   -0.59506E-04   -0.22106E-05  1492   0.713E-03    0.115E-01
RMM:   9    -0.118577701673E+04    0.17760E-03   -0.77294E-05  1592   0.104E-02    0.129E-01
RMM:  10    -0.118577716619E+04   -0.14946E-03   -0.17792E-05  1414   0.497E-03    0.548E-02
RMM:  11    -0.118577723166E+04   -0.65468E-04   -0.14780E-05  1356   0.405E-03    0.220E-02
RMM:  12    -0.118577724878E+04   -0.17119E-04   -0.43950E-06   995   0.243E-03    0.657E-03
RMM:  13    -0.118577726588E+04   -0.17103E-04   -0.29133E-06  1016   0.196E-03    0.679E-03
RMM:  14    -0.118577726686E+04   -0.98242E-06   -0.50158E-07   922   0.102E-03
  13 F= -.11930786E+04 E0= -.11930593E+04  d E =-.110094E-02  mag=    -1.3856
       N       E                     dE             d eps       ncg     rms          rms(c)
DAV:   1    -0.118577672061E+04    0.54527E-03   -0.11322E+00  1490   0.148E+00    0.782E-01
RMM:   2    -0.118580855284E+04   -0.31832E-01   -0.29244E-02  1528   0.207E-01    0.489E+00
RMM:   3    -0.118576373903E+04    0.44814E-01   -0.53489E-03  1514   0.948E-02    0.376E-01
RMM:   4    -0.118577582847E+04   -0.12089E-01   -0.13544E-03  1623   0.485E-02    0.202E-01
RMM:   5    -0.118577794792E+04   -0.21195E-02   -0.28569E-04  1742   0.202E-02    0.247E-01
RMM:   6    -0.118577763886E+04    0.30906E-03   -0.13973E-04  1499   0.126E-02    0.202E-01
RMM:   7    -0.118577806009E+04   -0.42123E-03   -0.15594E-04  1498   0.152E-02    0.352E-01
RMM:   8    -0.118577711658E+04    0.94351E-03   -0.11231E-04  1506   0.127E-02    0.424E-01
RMM:   9    -0.118577712154E+04   -0.49544E-05   -0.59081E-04  2032   0.270E-02    0.273E-01
RMM:  10    -0.118577775926E+04   -0.63772E-03   -0.12241E-04  1543   0.120E-02    0.109E-01
RMM:  11    -0.118577792157E+04   -0.16231E-03   -0.33516E-05  1502   0.653E-03    0.896E-02
RMM:  12    -0.118577791275E+04    0.88251E-05   -0.22944E-05  1458   0.456E-03    0.249E-02
RMM:  13    -0.118577797694E+04   -0.64193E-04   -0.72419E-06  1116   0.304E-03    0.321E-02
RMM:  14    -0.118577797242E+04    0.45256E-05   -0.35089E-06  1128   0.249E-03    0.864E-03
RMM:  15    -0.118577797862E+04   -0.62081E-05   -0.12015E-06   964   0.150E-03    0.328E-03
RMM:  16    -0.118577798032E+04   -0.16984E-05   -0.28998E-07   942   0.737E-04    0.205E-03
RMM:  17    -0.118577798100E+04   -0.68211E-06   -0.16251E-07   883   0.618E-04
  14 F= -.11930794E+04 E0= -.11930600E+04  d E =-.183939E-02  mag=    -1.3867
       N       E                     dE             d eps       ncg     rms          rms(c)
DAV:   1    -0.118577233832E+04    0.56420E-02   -0.45283E+00  1484   0.296E+00    0.159E+00
RMM:   2    -0.118591074682E+04   -0.13841E+00   -0.11579E-01  1530   0.413E-01    0.105E+01
RMM:   3    -0.118572485751E+04    0.18589E+00   -0.22328E-02  1519   0.192E-01    0.101E+00
RMM:   4    -0.118577082808E+04   -0.45971E-01   -0.57062E-03  1630   0.992E-02    0.689E-01
RMM:   5    -0.118577408544E+04   -0.32574E-02   -0.11291E-03  1711   0.410E-02    0.386E-01
RMM:   6    -0.118577774477E+04   -0.36593E-02   -0.60303E-04  1494   0.283E-02    0.298E-01
RMM:   7    -0.118577741714E+04    0.32763E-03   -0.45157E-03  1779   0.795E-02    0.692E-01
RMM:   8    -0.118577416781E+04    0.32493E-02   -0.51754E-04  1558   0.308E-02    0.679E-01
RMM:   9    -0.118577404189E+04    0.12592E-03   -0.58141E-04  1544   0.249E-02    0.755E-01
RMM:  10    -0.118577626042E+04   -0.22185E-02   -0.38558E-04  1510   0.222E-02    0.680E-01
RMM:  11    -0.118577544483E+04    0.81560E-03   -0.45448E-04  1650   0.242E-02    0.123E-01
RMM:  12    -0.118577709215E+04   -0.16473E-02   -0.16670E-04  1519   0.134E-02    0.216E-01
RMM:  13    -0.118577698264E+04    0.10951E-03   -0.63375E-05  1470   0.772E-03    0.210E-01
RMM:  14    -0.118577699482E+04   -0.12182E-04   -0.33090E-05  1557   0.697E-03    0.103E-01
RMM:  15    -0.118577713143E+04   -0.13661E-03   -0.13962E-05  1389   0.458E-03    0.343E-02
RMM:  16    -0.118577728889E+04   -0.15746E-03   -0.11673E-05  1055   0.308E-03    0.168E-02
RMM:  17    -0.118577731775E+04   -0.28859E-04   -0.22368E-06   980   0.174E-03    0.113E-02
RMM:  18    -0.118577732193E+04   -0.41851E-05   -0.76331E-07   954   0.103E-03    0.329E-03
RMM:  19    -0.118577732417E+04   -0.22376E-05   -0.25163E-07   910   0.631E-04    0.874E-03
RMM:  20    -0.118577732225E+04    0.19179E-05   -0.98495E-08   656   0.477E-04    0.360E-03
RMM:  21    -0.118577732260E+04   -0.34992E-06   -0.30716E-08   484   0.329E-04
  15 F= -.11930788E+04 E0= -.11930594E+04  d E =-.125805E-02  mag=    -1.3895
       N       E                     dE             d eps       ncg     rms          rms(c)
DAV:   1    -0.118577547813E+04    0.18441E-02   -0.22006E+00  1490   0.206E+00    0.995E-01
RMM:   2    -0.118583141989E+04   -0.55942E-01   -0.55024E-02  1525   0.289E-01    0.587E+00
RMM:   3    -0.118575743206E+04    0.73988E-01   -0.93930E-03  1513   0.130E-01    0.453E-01
RMM:   4    -0.118577627131E+04   -0.18839E-01   -0.23951E-03  1627   0.652E-02    0.306E-01
RMM:   5    -0.118577830078E+04   -0.20295E-02   -0.52287E-04  1746   0.275E-02    0.293E-01
RMM:   6    -0.118577815802E+04    0.14275E-03   -0.10040E-04  1500   0.129E-02    0.385E-01
RMM:   7    -0.118577825411E+04   -0.96089E-04   -0.20323E-04  1505   0.153E-02    0.531E-01
RMM:   8    -0.118577897898E+04   -0.72487E-03   -0.17100E-03  1948   0.426E-02    0.176E+00
RMM:   9    -0.118577390481E+04    0.50742E-02   -0.14068E-03  1616   0.305E-02    0.675E-01
RMM:  10    -0.118577786879E+04   -0.39640E-02   -0.38346E-04  1527   0.235E-02    0.499E-01
RMM:  11    -0.118577714772E+04    0.72107E-03   -0.19297E-04  1536   0.115E-02    0.156E-01
RMM:  12    -0.118577802110E+04   -0.87338E-03   -0.79162E-05  1480   0.898E-03    0.604E-02
RMM:  13    -0.118577802727E+04   -0.61765E-05   -0.39280E-05  1411   0.530E-03    0.510E-02
RMM:  14    -0.118577805326E+04   -0.25987E-04   -0.18824E-05  1308   0.404E-03    0.130E-01
RMM:  15    -0.118577801320E+04    0.40060E-04   -0.52658E-06  1126   0.287E-03    0.158E-02
RMM:  16    -0.118577807399E+04   -0.60792E-04   -0.77274E-06  1023   0.264E-03    0.510E-02
RMM:  17    -0.118577806084E+04    0.13156E-04   -0.19423E-06   964   0.130E-03    0.608E-03
RMM:  18    -0.118577808229E+04   -0.21451E-04   -0.10350E-06   911   0.988E-04    0.674E-03
RMM:  19    -0.118577808360E+04   -0.13080E-05   -0.45801E-07   676   0.513E-04    0.124E-02
RMM:  20    -0.118577808123E+04    0.23606E-05   -0.80331E-08   557   0.450E-04    0.579E-03
RMM:  21    -0.118577808199E+04   -0.75459E-06   -0.32932E-08   531   0.353E-04
  16 F= -.11930795E+04 E0= -.11930601E+04  d E =-.195957E-02  mag=    -1.3878
       N       E                     dE             d eps       ncg     rms          rms(c)
DAV:   1    -0.118577828639E+04   -0.20516E-03   -0.45617E-02  1552   0.293E-01    0.876E-02
RMM:   2    -0.118577872622E+04   -0.43982E-03   -0.96430E-04  1539   0.400E-02    0.633E-01
RMM:   3    -0.118577768533E+04    0.10409E-02   -0.18175E-04  1523   0.191E-02    0.383E-02
RMM:   4    -0.118577829861E+04   -0.61329E-03   -0.65184E-05  1438   0.965E-03    0.551E-02
RMM:   5    -0.118577832065E+04   -0.22035E-04   -0.11353E-05  1087   0.399E-03    0.473E-02
RMM:   6    -0.118577834035E+04   -0.19701E-04   -0.81659E-06  1235   0.347E-03    0.468E-02
RMM:   7    -0.118577834726E+04   -0.69140E-05   -0.10510E-05  1286   0.375E-03    0.512E-02
RMM:   8    -0.118577829421E+04    0.53058E-04   -0.71138E-06  1059   0.261E-03    0.306E-02
RMM:   9    -0.118577835511E+04   -0.60908E-04   -0.41076E-06   987   0.175E-03    0.635E-03
RMM:  10    -0.118577836821E+04   -0.13093E-04   -0.11442E-06   958   0.120E-03    0.794E-03
RMM:  11    -0.118577837069E+04   -0.24839E-05   -0.57069E-07   918   0.872E-04    0.201E-03
RMM:  12    -0.118577837192E+04   -0.12315E-05   -0.25248E-07   857   0.634E-04    0.425E-03
RMM:  13    -0.118577837204E+04   -0.11677E-06   -0.27546E-08   452   0.325E-04
  17 F= -.11930798E+04 E0= -.11930604E+04  d E =-.308874E-03  mag=    -1.3880
       N       E                     dE             d eps       ncg     rms          rms(c)
DAV:   1    -0.118577839938E+04   -0.27455E-04   -0.41063E-01  1522   0.879E-01    0.267E-01
RMM:   2    -0.118578243511E+04   -0.40357E-02   -0.86911E-03  1538   0.120E-01    0.176E+00
RMM:   3    -0.118577493775E+04    0.74974E-02   -0.13874E-03  1529   0.537E-02    0.139E-01
RMM:   4    -0.118577864613E+04   -0.37084E-02   -0.44219E-04  1703   0.267E-02    0.192E-01
RMM:   5    -0.118577874450E+04   -0.98374E-04   -0.86568E-05  1522   0.106E-02    0.203E-01
RMM:   6    -0.118577912148E+04   -0.37698E-03   -0.99777E-05  1492   0.111E-02    0.310E-01
RMM:   7    -0.118577872304E+04    0.39844E-03   -0.10296E-04  1513   0.117E-02    0.180E-01
RMM:   8    -0.118577875160E+04   -0.28559E-04   -0.84158E-05  1521   0.863E-03    0.220E-01
RMM:   9    -0.118577902850E+04   -0.27690E-03   -0.49284E-05  1359   0.650E-03    0.242E-02
RMM:  10    -0.118577913977E+04   -0.11127E-03   -0.14823E-05  1204   0.420E-03    0.286E-02
RMM:  11    -0.118577915135E+04   -0.11582E-04   -0.28830E-06  1002   0.192E-03    0.728E-03
RMM:  12    -0.118577915974E+04   -0.83877E-05   -0.44659E-06  1162   0.239E-03    0.147E-02
RMM:  13    -0.118577915732E+04    0.24184E-05   -0.64746E-07   947   0.117E-03    0.102E-02
RMM:  14    -0.118577915954E+04   -0.22181E-05   -0.17302E-07   858   0.583E-04    0.577E-03
RMM:  15    -0.118577916059E+04   -0.10502E-05   -0.16781E-07   770   0.484E-04    0.181E-03
RMM:  16    -0.118577916109E+04   -0.50139E-06   -0.28155E-08   461   0.330E-04
  18 F= -.11930806E+04 E0= -.11930613E+04  d E =-.115641E-02  mag=    -1.3887
       N       E                     dE             d eps       ncg     rms          rms(c)
DAV:   1    -0.118577736307E+04    0.17975E-02   -0.16422E+00  1516   0.176E+00    0.545E-01
RMM:   2    -0.118579298327E+04   -0.15620E-01   -0.34977E-02  1535   0.240E-01    0.304E+00
RMM:   3    -0.118577289081E+04    0.20092E-01   -0.51362E-03  1530   0.103E-01    0.275E-01
RMM:   4    -0.118577960728E+04   -0.67165E-02   -0.13360E-03  1729   0.479E-02    0.362E-01
RMM:   5    -0.118577982675E+04   -0.21946E-03   -0.26698E-04  1737   0.198E-02    0.358E-01
RMM:   6    -0.118578030775E+04   -0.48100E-03   -0.21713E-04  1494   0.172E-02    0.464E-01
RMM:   7    -0.118577984409E+04    0.46366E-03   -0.48491E-04  1540   0.258E-02    0.209E-01
RMM:   8    -0.118577990801E+04   -0.63926E-04   -0.74702E-05  1510   0.113E-02    0.160E-01
RMM:   9    -0.118577994693E+04   -0.38916E-04   -0.10101E-04  1541   0.116E-02    0.141E-01
RMM:  10    -0.118578032698E+04   -0.38005E-03   -0.77669E-05  1522   0.105E-02    0.500E-02
RMM:  11    -0.118578038341E+04   -0.56434E-04   -0.15568E-05  1309   0.462E-03    0.292E-02
RMM:  12    -0.118578040947E+04   -0.26055E-04   -0.13514E-05  1386   0.431E-03    0.139E-02
RMM:  13    -0.118578040797E+04    0.14952E-05   -0.49611E-06  1219   0.277E-03    0.442E-03
RMM:  14    -0.118578041366E+04   -0.56843E-05   -0.91170E-07   971   0.130E-03    0.709E-03
RMM:  15    -0.118578041355E+04    0.10525E-06   -0.38419E-07   950   0.795E-04
  19 F= -.11930820E+04 E0= -.11930627E+04  d E =-.253500E-02  mag=    -1.3898
       N       E                     dE             d eps       ncg     rms          rms(c)
DAV:   1    -0.118576938010E+04    0.11034E-01   -0.65688E+00  1516   0.352E+00    0.112E+00
RMM:   2    -0.118583235079E+04   -0.62971E-01   -0.14042E-01  1537   0.481E-01    0.671E+00
RMM:   3    -0.118575405855E+04    0.78292E-01   -0.20783E-02  1532   0.206E-01    0.549E-01
RMM:   4    -0.118577797694E+04   -0.23918E-01   -0.54906E-03  1709   0.980E-02    0.707E-01
RMM:   5    -0.118577893053E+04   -0.95359E-03   -0.10753E-03  1778   0.381E-02    0.528E-01
RMM:   6    -0.118578106259E+04   -0.21321E-02   -0.43159E-04  1491   0.252E-02    0.331E-01
RMM:   7    -0.118578175093E+04   -0.68833E-03   -0.34695E-04  1504   0.222E-02    0.698E-01
RMM:   8    -0.118577752336E+04    0.42276E-02   -0.18306E-03  1691   0.488E-02    0.534E-01
RMM:   9    -0.118577969688E+04   -0.21735E-02   -0.78122E-04  1593   0.329E-02    0.472E-01
RMM:  10    -0.118578100963E+04   -0.13127E-02   -0.23593E-04  1538   0.197E-02    0.336E-01
RMM:  11    -0.118578123203E+04   -0.22240E-03   -0.17268E-04  1545   0.140E-02    0.579E-02
RMM:  12    -0.118578157028E+04   -0.33826E-03   -0.43828E-05  1452   0.826E-03    0.539E-02
RMM:  13    -0.118578162677E+04   -0.56486E-04   -0.36304E-05  1496   0.725E-03    0.105E-01
RMM:  14    -0.118578157056E+04    0.56212E-04   -0.21120E-05  1490   0.589E-03    0.111E-02
RMM:  15    -0.118578162934E+04   -0.58782E-04   -0.62295E-06  1088   0.313E-03    0.159E-02
RMM:  16    -0.118578163351E+04   -0.41685E-05   -0.14272E-06   998   0.152E-03    0.151E-02
RMM:  17    -0.118578163462E+04   -0.11075E-05   -0.57487E-07   959   0.951E-04    0.399E-03
RMM:  18    -0.118578163679E+04   -0.21706E-05   -0.28224E-07   946   0.678E-04    0.273E-03
RMM:  19    -0.118578163779E+04   -0.99831E-06   -0.39573E-08   547   0.369E-04
  20 F= -.11930835E+04 E0= -.11930642E+04  d E =-.404817E-02  mag=    -1.3924
       N       E                     dE             d eps       ncg     rms          rms(c)
DAV:   1    -0.118578178016E+04   -0.14337E-03   -0.75057E-01  1500   0.119E+00    0.210E-01
RMM:   2    -0.118578435333E+04   -0.25732E-02   -0.14524E-02  1520   0.160E-01    0.125E+00
RMM:   3    -0.118578099535E+04    0.33580E-02   -0.21498E-03  1528   0.675E-02    0.168E-01
RMM:   4    -0.118578294694E+04   -0.19516E-02   -0.53369E-04  1685   0.313E-02    0.240E-01
RMM:   5    -0.118578267415E+04    0.27279E-03   -0.10764E-04  1697   0.120E-02    0.186E-01
RMM:   6    -0.118578291105E+04   -0.23690E-03   -0.16227E-04  1492   0.157E-02    0.194E-01
RMM:   7    -0.118578299801E+04   -0.86958E-04   -0.18839E-04  1511   0.167E-02    0.206E-01
RMM:   8    -0.118578247230E+04    0.52571E-03   -0.97788E-05  1506   0.111E-02    0.112E-01
RMM:   9    -0.118578301769E+04   -0.54539E-03   -0.43669E-05  1435   0.634E-03    0.558E-02
RMM:  10    -0.118578314387E+04   -0.12618E-03   -0.19002E-05  1423   0.501E-03    0.214E-02
RMM:  11    -0.118578317173E+04   -0.27857E-04   -0.73368E-06  1280   0.325E-03    0.112E-02
RMM:  12    -0.118578316976E+04    0.19729E-05   -0.59545E-06  1232   0.287E-03    0.798E-03
RMM:  13    -0.118578317641E+04   -0.66514E-05   -0.66287E-07   952   0.120E-03    0.853E-03
RMM:  14    -0.118578317632E+04    0.84001E-07   -0.51401E-07   949   0.914E-04
  21 F= -.11930853E+04 E0= -.11930660E+04  d E =-.179522E-02  mag=    -1.3928
       N       E                     dE             d eps       ncg     rms          rms(c)
DAV:   1    -0.118577657496E+04    0.66015E-02   -0.47770E+00  1500   0.300E+00    0.516E-01
RMM:   2    -0.118579214159E+04   -0.15567E-01   -0.92803E-02  1518   0.404E-01    0.287E+00
RMM:   3    -0.118577851634E+04    0.13625E-01   -0.13161E-02  1529   0.167E-01    0.394E-01
RMM:   4    -0.118578472736E+04   -0.62110E-02   -0.30049E-03  1692   0.761E-02    0.513E-01
RMM:   5    -0.118578428150E+04    0.44586E-03   -0.57097E-04  1780   0.284E-02    0.480E-01
RMM:   6    -0.118578430698E+04   -0.25485E-04   -0.19157E-04  1494   0.171E-02    0.588E-01
RMM:   7    -0.118578404986E+04    0.25713E-03   -0.28722E-03  1684   0.601E-02    0.517E-01
RMM:   8    -0.118578371310E+04    0.33676E-03   -0.29710E-04  1558   0.245E-02    0.480E-01
RMM:   9    -0.118578452063E+04   -0.80753E-03   -0.21634E-04  1527   0.177E-02    0.114E-01
RMM:  10    -0.118578548346E+04   -0.96283E-03   -0.16765E-04  1518   0.160E-02    0.221E-01
RMM:  11    -0.118578535971E+04    0.12375E-03   -0.61120E-05  1497   0.825E-03    0.163E-01
RMM:  12    -0.118578537988E+04   -0.20172E-04   -0.68459E-05  1498   0.679E-03    0.260E-02
RMM:  13    -0.118578549914E+04   -0.11926E-03   -0.19261E-05  1390   0.490E-03    0.673E-02
RMM:  14    -0.118578547453E+04    0.24609E-04   -0.70023E-06  1126   0.285E-03    0.302E-02
RMM:  15    -0.118578549096E+04   -0.16430E-04   -0.32296E-06   995   0.168E-03    0.550E-03
RMM:  16    -0.118578549820E+04   -0.72341E-05   -0.57986E-07   962   0.945E-04    0.533E-03
RMM:  17    -0.118578549896E+04   -0.76390E-06   -0.35318E-07   948   0.650E-04
  22 F= -.11930883E+04 E0= -.11930690E+04  d E =-.479431E-02  mag=    -1.3936
       N       E                     dE             d eps       ncg     rms          rms(c)
DAV:   1    -0.118574718566E+04    0.38313E-01   -0.19113E+01  1500   0.600E+00    0.984E-01
RMM:   2    -0.118580147357E+04   -0.54288E-01   -0.37601E-01  1515   0.813E-01    0.448E+00
RMM:   3    -0.118577088921E+04    0.30584E-01   -0.53176E-02  1532   0.332E-01    0.707E-01
RMM:   4    -0.118578448801E+04   -0.13599E-01   -0.11667E-02  1698   0.146E-01    0.929E-01
RMM:   5    -0.118578418749E+04    0.30052E-03   -0.16954E-03  1804   0.523E-02    0.107E+00
RMM:   6    -0.118577805738E+04    0.61301E-02   -0.71590E-03  1524   0.101E-01    0.593E-01
RMM:   7    -0.118578345055E+04   -0.53932E-02   -0.20787E-03  1498   0.614E-02    0.937E-01
RMM:   8    -0.118577670048E+04    0.67501E-02   -0.11015E-03  1531   0.408E-02    0.867E-01
RMM:   9    -0.118578226698E+04   -0.55665E-02   -0.83247E-04  1520   0.333E-02    0.290E-01
RMM:  10    -0.118578293874E+04   -0.67176E-03   -0.29055E-04  1513   0.219E-02    0.120E-01
RMM:  11    -0.118578341273E+04   -0.47399E-03   -0.93728E-05  1556   0.119E-02    0.594E-02
RMM:  12    -0.118578346284E+04   -0.50102E-04   -0.19283E-04  1545   0.164E-02    0.337E-02
RMM:  13    -0.118578346738E+04   -0.45391E-05   -0.32703E-05  1491   0.816E-03    0.231E-02
RMM:  14    -0.118578350064E+04   -0.33261E-04   -0.78619E-06  1226   0.372E-03    0.781E-03
RMM:  15    -0.118578350416E+04   -0.35190E-05   -0.50854E-06  1290   0.289E-03    0.420E-03
RMM:  16    -0.118578350551E+04   -0.13558E-05   -0.11717E-06   962   0.159E-03    0.584E-03
RMM:  17    -0.118578350538E+04    0.12900E-06   -0.35849E-07   953   0.907E-04
  23 F= -.11930878E+04 E0= -.11930685E+04  d E =-.427829E-02  mag=    -1.3951
       N       E                     dE             d eps       ncg     rms          rms(c)
DAV:   1    -0.118577467163E+04    0.88339E-02   -0.59102E+00  1500   0.335E+00    0.622E-01
RMM:   2    -0.118579623517E+04   -0.21564E-01   -0.11526E-01  1522   0.449E-01    0.286E+00
RMM:   3    -0.118577854465E+04    0.17691E-01   -0.17218E-02  1531   0.186E-01    0.645E-01
RMM:   4    -0.118578447264E+04   -0.59280E-02   -0.40466E-03  1728   0.833E-02    0.740E-01
RMM:   5    -0.118578214658E+04    0.23261E-02   -0.85329E-04  1796   0.329E-02    0.362E-01
RMM:   6    -0.118578615347E+04   -0.40069E-02   -0.14545E-03  1501   0.439E-02    0.110E+00
RMM:   7    -0.118578471936E+04    0.14341E-02   -0.26919E-03  1562   0.604E-02    0.949E-01
RMM:   8    -0.118578451403E+04    0.20533E-03   -0.50601E-04  1507   0.324E-02    0.255E-01
RMM:   9    -0.118578480553E+04   -0.29150E-03   -0.86239E-05  1705   0.130E-02    0.196E-01
RMM:  10    -0.118578513285E+04   -0.32732E-03   -0.94128E-05  1512   0.108E-02    0.591E-02
RMM:  11    -0.118578569063E+04   -0.55779E-03   -0.86118E-05  1523   0.100E-02    0.219E-01
RMM:  12    -0.118578561041E+04    0.80229E-04   -0.51017E-05  1505   0.792E-03    0.228E-02
RMM:  13    -0.118578570988E+04   -0.99473E-04   -0.29539E-05  1499   0.626E-03    0.490E-02
RMM:  14    -0.118578570678E+04    0.31009E-05   -0.91213E-06  1292   0.379E-03    0.355E-02
RMM:  15    -0.118578571180E+04   -0.50197E-05   -0.20690E-06  1001   0.185E-03    0.134E-02
RMM:  16    -0.118578571957E+04   -0.77771E-05   -0.11433E-06   969   0.123E-03    0.881E-03
RMM:  17    -0.118578572563E+04   -0.60609E-05   -0.39809E-07   949   0.827E-04    0.308E-03
RMM:  18    -0.118578572625E+04   -0.61638E-06   -0.15756E-07   876   0.527E-04
  24 F= -.11930892E+04 E0= -.11930699E+04  d E =-.565573E-02  mag=    -1.3943
       N       E                     dE             d eps       ncg     rms          rms(c)
DAV:   1    -0.118578481674E+04    0.90889E-03   -0.11346E+00  1492   0.145E+00    0.250E-01
RMM:   2    -0.118578824974E+04   -0.34330E-02   -0.22056E-02  1526   0.197E-01    0.135E+00
RMM:   3    -0.118578459292E+04    0.36568E-02   -0.32628E-03  1527   0.823E-02    0.207E-01
RMM:   4    -0.118578667713E+04   -0.20842E-02   -0.78040E-04  1658   0.380E-02    0.282E-01
RMM:   5    -0.118578630767E+04    0.36946E-03   -0.16439E-04  1770   0.149E-02    0.245E-01
RMM:   6    -0.118578647731E+04   -0.16964E-03   -0.11803E-04  1490   0.136E-02    0.326E-01
RMM:   7    -0.118578624849E+04    0.22881E-03   -0.52263E-05  1474   0.710E-03    0.317E-01
RMM:   8    -0.118578646401E+04   -0.21552E-03   -0.25192E-05  1132   0.375E-03    0.562E-01
RMM:   9    -0.118578465713E+04    0.18069E-02   -0.88259E-04  2374   0.327E-02    0.142E-01
RMM:  10    -0.118578642202E+04   -0.17649E-02   -0.12915E-04  1665   0.116E-02    0.122E-01
RMM:  11    -0.118578663570E+04   -0.21368E-03   -0.74511E-05  1530   0.778E-03    0.778E-02
RMM:  12    -0.118578676267E+04   -0.12696E-03   -0.23120E-05  1410   0.465E-03    0.233E-02
RMM:  13    -0.118578683217E+04   -0.69501E-04   -0.11957E-05  1250   0.353E-03    0.294E-02
RMM:  14    -0.118578683130E+04    0.86470E-06   -0.19083E-06   996   0.178E-03
  25 F= -.11930906E+04 E0= -.11930713E+04  d E =-.144971E-02  mag=    -1.3948
       N       E                     dE             d eps       ncg     rms          rms(c)
DAV:   1    -0.118577149908E+04    0.15333E-01   -0.89601E+00  1492   0.409E+00    0.685E-01
RMM:   2    -0.118579704696E+04   -0.25548E-01   -0.17538E-01  1524   0.558E-01    0.333E+00
RMM:   3    -0.118577982992E+04    0.17217E-01   -0.25251E-02  1526   0.228E-01    0.520E-01
RMM:   4    -0.118578780995E+04   -0.79800E-02   -0.56664E-03  1659   0.103E-01    0.646E-01
RMM:   5    -0.118578779781E+04    0.12134E-04   -0.93211E-04  1734   0.396E-02    0.824E-01
RMM:   6    -0.118578412753E+04    0.36703E-02   -0.33828E-03  1511   0.708E-02    0.270E-01
RMM:   7    -0.118578716265E+04   -0.30351E-02   -0.21606E-03  1505   0.602E-02    0.230E-01
RMM:   8    -0.118578752387E+04   -0.36121E-03   -0.26495E-04  1500   0.244E-02    0.324E-01
RMM:   9    -0.118578645176E+04    0.10721E-02   -0.22160E-04  1535   0.167E-02    0.176E-01
RMM:  10    -0.118578755334E+04   -0.11016E-02   -0.11125E-04  1503   0.112E-02    0.700E-02
RMM:  11    -0.118578767158E+04   -0.11824E-03   -0.11867E-04  1524   0.130E-02    0.263E-02
RMM:  12    -0.118578771137E+04   -0.39782E-04   -0.36673E-05  1488   0.797E-03    0.126E-02
RMM:  13    -0.118578771988E+04   -0.85175E-05   -0.54781E-06  1180   0.339E-03    0.738E-03
RMM:  14    -0.118578772266E+04   -0.27781E-05   -0.47833E-06  1159   0.272E-03    0.392E-03
RMM:  15    -0.118578772440E+04   -0.17385E-05   -0.12652E-06   962   0.159E-03    0.340E-03
RMM:  16    -0.118578772469E+04   -0.29174E-06   -0.47513E-07   953   0.986E-04
  26 F= -.11930925E+04 E0= -.11930733E+04  d E =-.336151E-02  mag=    -1.3969
       N       E                     dE             d eps       ncg     rms          rms(c)
DAV:   1    -0.118578747790E+04    0.24650E-03   -0.88870E-02  1528   0.408E-01    0.711E-02
RMM:   2    -0.118578774031E+04   -0.26241E-03   -0.17274E-03  1527   0.553E-02    0.395E-01
RMM:   3    -0.118578731512E+04    0.42519E-03   -0.27697E-04  1523   0.239E-02    0.628E-02
RMM:   4    -0.118578755243E+04   -0.23731E-03   -0.67998E-05  1612   0.110E-02    0.898E-02
RMM:   5    -0.118578748220E+04    0.70224E-04   -0.14559E-05  1135   0.439E-03    0.610E-02
RMM:   6    -0.118578757788E+04   -0.95674E-04   -0.32569E-05  1486   0.700E-03    0.795E-02
RMM:   7    -0.118578758013E+04   -0.22578E-05   -0.13481E-05  1494   0.465E-03    0.774E-02
RMM:   8    -0.118578750075E+04    0.79383E-04   -0.16850E-05  1397   0.439E-03    0.362E-02
RMM:   9    -0.118578761117E+04   -0.11042E-03   -0.10477E-05  1070   0.310E-03    0.193E-02
RMM:  10    -0.118578763497E+04   -0.23806E-04   -0.29567E-06  1001   0.187E-03    0.510E-03
RMM:  11    -0.118578763884E+04   -0.38671E-05   -0.11780E-06   960   0.138E-03    0.443E-03
RMM:  12    -0.118578763883E+04    0.44238E-08   -0.33535E-07   917   0.805E-04
  27 F= -.11930926E+04 E0= -.11930733E+04  d E =-.338118E-02  mag=    -1.3971
       N       E                     dE             d eps       ncg     rms          rms(c)
DAV:   1    -0.118578815957E+04   -0.52073E-03   -0.20399E-02  1568   0.231E-01    0.243E-01
RMM:   2    -0.118579171048E+04   -0.35509E-02   -0.11656E-03  1516   0.388E-02    0.177E+00
RMM:   3    -0.118578407084E+04    0.76396E-02   -0.51494E-04  1516   0.257E-02    0.155E-01
RMM:   4    -0.118578755485E+04   -0.34840E-02   -0.27794E-04  1577   0.157E-02    0.971E-02
RMM:   5    -0.118578791606E+04   -0.36121E-03   -0.35946E-05  1148   0.633E-03    0.155E-01
RMM:   6    -0.118578788720E+04    0.28861E-04   -0.83080E-06  1004   0.258E-03    0.190E-01
RMM:   7    -0.118578776478E+04    0.12242E-03   -0.84418E-06   981   0.207E-03    0.128E-01
RMM:   8    -0.118578784620E+04   -0.81420E-04   -0.23820E-05  1025   0.287E-03    0.147E-01
RMM:   9    -0.118578796496E+04   -0.11876E-03   -0.86683E-05  1967   0.101E-02    0.282E-02
RMM:  10    -0.118578808906E+04   -0.12410E-03   -0.99323E-06  1004   0.302E-03    0.291E-02
RMM:  11    -0.118578811772E+04   -0.28660E-04   -0.66158E-06   996   0.272E-03    0.209E-02
RMM:  12    -0.118578812972E+04   -0.12009E-04   -0.16615E-06   938   0.157E-03    0.746E-03
RMM:  13    -0.118578813236E+04   -0.26360E-05   -0.41140E-07   907   0.892E-04    0.210E-02
RMM:  14    -0.118578813163E+04    0.73118E-06   -0.58072E-07   908   0.920E-04
  28 F= -.11930930E+04 E0= -.11930737E+04  d E =-.434890E-03  mag=    -1.3971
