       N       E                     dE             d eps       ncg     rms          rms(c)
DAV:   1     0.483571770801E+04    0.48357E+04   -0.16822E+05  1836   0.898E+02
DAV:   2    -0.817755871322E+02   -0.49175E+04   -0.44735E+04  2556   0.206E+02
DAV:   3    -0.118543400154E+04   -0.11037E+04   -0.10978E+04  2160   0.108E+02
DAV:   4    -0.122863541269E+04   -0.43201E+02   -0.43006E+02  2052   0.281E+01
DAV:   5    -0.122976147407E+04   -0.11261E+01   -0.11242E+01  2376   0.417E+00    0.638E+01
RMM:   6    -0.121634732096E+04    0.13414E+02   -0.18814E+01  1584   0.440E+00    0.505E+01
RMM:   7    -0.119904186268E+04    0.17305E+02   -0.10387E+01  1584   0.373E+00    0.395E+01
RMM:   8    -0.117021746617E+04    0.28824E+02   -0.46482E+01  1584   0.775E+00    0.241E+01
RMM:   9    -0.116706120951E+04    0.31563E+01   -0.42776E+01  1584   0.733E+00    0.984E+00
RMM:  10    -0.116688066265E+04    0.18055E+00   -0.14799E+00  1620   0.157E+00    0.814E+00
RMM:  11    -0.116619342947E+04    0.68723E+00   -0.19915E+00  1584   0.131E+00    0.481E+00
RMM:  12    -0.116578180252E+04    0.41163E+00   -0.64649E-01  1584   0.851E-01    0.158E+00
RMM:  13    -0.116573956191E+04    0.42241E-01   -0.23560E-01  1584   0.541E-01    0.529E-01
RMM:  14    -0.116573960667E+04   -0.44766E-04   -0.19923E-02  1619   0.167E-01    0.280E-01
RMM:  15    -0.116573848396E+04    0.11227E-02   -0.57584E-03  1584   0.854E-02    0.178E-01
RMM:  16    -0.116573897129E+04   -0.48733E-03   -0.99895E-04  1541   0.366E-02    0.137E-01
RMM:  17    -0.116573899021E+04   -0.18925E-04   -0.11933E-03  1519   0.375E-02    0.727E-02
RMM:  18    -0.116573897854E+04    0.11668E-04   -0.20297E-04  1091   0.173E-02
   1 F= -.11728646E+04 E0= -.11728646E+04  d E =-.117286E+04  mag=    -0.0033
       N       E                     dE             d eps       ncg     rms          rms(c)
DAV:   1    -0.116573676101E+04    0.22292E-02   -0.14390E+00  1692   0.172E+00    0.445E-01
RMM:   2    -0.116573857351E+04   -0.18125E-02   -0.30488E-02  1584   0.241E-01    0.441E-01
RMM:   3    -0.116573823287E+04    0.34064E-03   -0.20823E-03  1664   0.522E-02    0.420E-01
RMM:   4    -0.116573601601E+04    0.22169E-02   -0.43345E-03  1584   0.741E-02    0.176E-01
RMM:   5    -0.116573600785E+04    0.81620E-05   -0.21326E-03  1584   0.519E-02    0.716E-02
RMM:   6    -0.116573586624E+04    0.14160E-03   -0.32616E-04  1246   0.197E-02    0.398E-02
RMM:   7    -0.116573587637E+04   -0.10123E-04   -0.34001E-05  1016   0.840E-03
   2 F= -.11728621E+04 E0= -.11728621E+04  d E =0.251926E-02  mag=    -0.0000
       N       E                     dE             d eps       ncg     rms          rms(c)
DAV:   1    -0.116574132123E+04   -0.54550E-02   -0.52250E-01  1692   0.103E+00    0.263E-01
RMM:   2    -0.116574181513E+04   -0.49390E-03   -0.96337E-03  1584   0.140E-01    0.263E-01
RMM:   3    -0.116574168523E+04    0.12991E-03   -0.58910E-04  1294   0.293E-02    0.251E-01
RMM:   4    -0.116574084206E+04    0.84316E-03   -0.16475E-03  1584   0.461E-02    0.103E-01
RMM:   5    -0.116574083344E+04    0.86231E-05   -0.75162E-04  1584   0.310E-02
   3 F= -.11728667E+04 E0= -.11728667E+04  d E =-.208740E-02  mag=    -0.0000
       N       E                     dE             d eps       ncg     rms          rms(c)
DAV:   1    -0.116574253154E+04   -0.16895E-02   -0.67129E-01  1656   0.122E+00    0.270E-01
RMM:   2    -0.116574298221E+04   -0.45067E-03   -0.11711E-02  1584   0.159E-01    0.251E-01
RMM:   3    -0.116574241303E+04    0.56918E-03   -0.80618E-04  1461   0.366E-02    0.216E-01
RMM:   4    -0.116574136298E+04    0.10501E-02   -0.39596E-03  1584   0.684E-02    0.596E-02
RMM:   5    -0.116574138664E+04   -0.23664E-04   -0.21882E-04  1128   0.189E-02
   4 F= -.11728673E+04 E0= -.11728673E+04  d E =-.649332E-03  mag=    -0.0000
       N       E                     dE             d eps       ncg     rms          rms(c)
DAV:   1    -0.116574221144E+04   -0.84846E-03   -0.11499E-01  1728   0.505E-01    0.101E-01
RMM:   2    -0.116574226443E+04   -0.52994E-04   -0.18210E-03  1584   0.625E-02    0.945E-02
RMM:   3    -0.116574215803E+04    0.10640E-03   -0.11170E-04  1020   0.149E-02    0.803E-02
RMM:   4    -0.116574198391E+04    0.17412E-03   -0.75506E-04  1568   0.303E-02    0.196E-02
RMM:   5    -0.116574198675E+04   -0.28406E-05   -0.21358E-05  1000   0.673E-03
   5 F= -.11728679E+04 E0= -.11728679E+04  d E =-.120948E-02  mag=    -0.0000
       N       E                     dE             d eps       ncg     rms          rms(c)
DAV:   1    -0.116574340318E+04   -0.14193E-02   -0.51480E-01  1728   0.103E+00    0.153E-01
RMM:   2    -0.116574392533E+04   -0.52215E-03   -0.82846E-03  1584   0.133E-01    0.145E-01
RMM:   3    -0.116574377592E+04    0.14941E-03   -0.49124E-04  1268   0.296E-02    0.132E-01
RMM:   4    -0.116574339851E+04    0.37741E-03   -0.12433E-03  1567   0.387E-02    0.486E-02
RMM:   5    -0.116574341686E+04   -0.18357E-04   -0.18799E-04  1102   0.165E-02
   6 F= -.11728695E+04 E0= -.11728695E+04  d E =-.166056E-02  mag=    -0.0000
       N       E                     dE             d eps       ncg     rms          rms(c)
DAV:   1    -0.116574340018E+04   -0.16714E-05   -0.51214E-02  1728   0.325E-01    0.590E-02
RMM:   2    -0.116574345976E+04   -0.59581E-04   -0.97784E-04  1526   0.464E-02
   7 F= -.11728697E+04 E0= -.11728697E+04  d E =-.177603E-02  mag=    -0.0000
       N       E                     dE             d eps       ncg     rms          rms(c)
DAV:   1    -0.116574448704E+04   -0.10869E-02   -0.22131E-01  1728   0.665E-01    0.126E-01
RMM:   2    -0.116574466206E+04   -0.17501E-03   -0.35368E-03  1584   0.864E-02    0.121E-01
RMM:   3    -0.116574457741E+04    0.84648E-04   -0.21469E-04  1146   0.205E-02
   8 F= -.11728710E+04 E0= -.11728710E+04  d E =-.133188E-02  mag=     0.0000
       N       E                     dE             d eps       ncg     rms          rms(c)
DAV:   1    -0.116574379996E+04    0.86209E-03   -0.19419E+00  1584   0.197E+00    0.262E-01
RMM:   2    -0.116574592839E+04   -0.21284E-02   -0.28147E-02  1584   0.243E-01    0.257E-01
RMM:   3    -0.116574582602E+04    0.10237E-03   -0.19793E-03  1618   0.558E-02    0.249E-01
RMM:   4    -0.116574511639E+04    0.70964E-03   -0.11614E-03  1542   0.384E-02    0.150E-01
RMM:   5    -0.116574525135E+04   -0.13496E-03   -0.23817E-03  1584   0.525E-02    0.591E-02
RMM:   6    -0.116574513545E+04    0.11590E-03   -0.11903E-04  1080   0.130E-02    0.412E-02
RMM:   7    -0.116574511191E+04    0.23535E-04   -0.19670E-04  1096   0.142E-02
   9 F= -.11728722E+04 E0= -.11728722E+04  d E =-.251615E-02  mag=     0.0000
       N       E                     dE             d eps       ncg     rms          rms(c)
DAV:   1    -0.116574822160E+04   -0.30862E-02   -0.31716E-01  1728   0.884E-01    0.166E-01
RMM:   2    -0.116574856792E+04   -0.34632E-03   -0.74300E-03  1584   0.131E-01    0.158E-01
RMM:   3    -0.116574827676E+04    0.29116E-03   -0.34835E-04  1212   0.262E-02    0.141E-01
RMM:   4    -0.116574763289E+04    0.64388E-03   -0.39789E-03  1584   0.675E-02    0.518E-02
RMM:   5    -0.116574757285E+04    0.60041E-04   -0.57043E-05  1028   0.124E-02
  10 F= -.11728741E+04 E0= -.11728741E+04  d E =-.195090E-02  mag=     0.0000
       N       E                     dE             d eps       ncg     rms          rms(c)
DAV:   1    -0.116574769294E+04   -0.60056E-04   -0.21693E-02  1872   0.233E-01    0.285E-02
RMM:   2    -0.116574771623E+04   -0.23289E-04   -0.36471E-04  1212   0.295E-02
  11 F= -.11728744E+04 E0= -.11728744E+04  d E =-.223167E-02  mag=     0.0000
       N       E                     dE             d eps       ncg     rms          rms(c)
DAV:   1    -0.116574939839E+04   -0.17054E-02   -0.13381E-01  1584   0.523E-01    0.954E-02
RMM:   2    -0.116574951687E+04   -0.11848E-03   -0.23778E-03  1584   0.723E-02    0.901E-02
RMM:   3    -0.116574942585E+04    0.91022E-04   -0.11648E-04  1042   0.156E-02
  12 F= -.11728759E+04 E0= -.11728759E+04  d E =-.152631E-02  mag=    -0.0000
       N       E                     dE             d eps       ncg     rms          rms(c)
DAV:   1    -0.116574907909E+04    0.43778E-03   -0.11763E+00  1584   0.155E+00    0.325E-01
RMM:   2    -0.116574976325E+04   -0.68416E-03   -0.19950E-02  1584   0.208E-01    0.304E-01
RMM:   3    -0.116574847977E+04    0.12835E-02   -0.14671E-03  1622   0.492E-02    0.254E-01
RMM:   4    -0.116574657325E+04    0.19065E-02   -0.81171E-03  1584   0.977E-02    0.727E-02
RMM:   5    -0.116574653056E+04    0.42690E-04   -0.18448E-04  1096   0.192E-02
  13 F= -.11728725E+04 E0= -.11728725E+04  d E =0.190867E-02  mag=    -0.0000
       N       E                     dE             d eps       ncg     rms          rms(c)
DAV:   1    -0.116575087135E+04   -0.42981E-02   -0.56962E-01  1584   0.108E+00    0.206E-01
RMM:   2    -0.116575116243E+04   -0.29108E-03   -0.94669E-03  1584   0.143E-01    0.192E-01
RMM:   3    -0.116575054330E+04    0.61914E-03   -0.68883E-04  1436   0.339E-02    0.160E-01
RMM:   4    -0.116574958561E+04    0.95769E-03   -0.37951E-03  1584   0.667E-02    0.456E-02
RMM:   5    -0.116574958125E+04    0.43587E-05   -0.92318E-05  1058   0.137E-02
  14 F= -.11728759E+04 E0= -.11728759E+04  d E =-.151419E-02  mag=    -0.0000
