       N       E                     dE             d eps       ncg     rms          rms(c)
DAV:   1     0.492501873146E+04    0.49250E+04   -0.17131E+05  1836   0.912E+02
DAV:   2    -0.550063780779E+02   -0.49800E+04   -0.45450E+04  2520   0.209E+02
DAV:   3    -0.119240954131E+04   -0.11374E+04   -0.11311E+04  2124   0.110E+02
DAV:   4    -0.123752598678E+04   -0.45116E+02   -0.44878E+02  2052   0.288E+01
DAV:   5    -0.123866994342E+04   -0.11440E+01   -0.11413E+01  2340   0.424E+00    0.665E+01
RMM:   6    -0.122398181616E+04    0.14688E+02   -0.29397E+01  1584   0.543E+00    0.548E+01
RMM:   7    -0.120877209127E+04    0.15210E+02   -0.68094E+00  1584   0.297E+00    0.435E+01
RMM:   8    -0.118323868878E+04    0.25533E+02   -0.32064E+01  1584   0.648E+00    0.281E+01
RMM:   9    -0.117277615920E+04    0.10463E+02   -0.14598E+01  1584   0.440E+00    0.205E+01
RMM:  10    -0.117080193324E+04    0.19742E+01   -0.15221E+01  1584   0.443E+00    0.118E+01
RMM:  11    -0.117185901103E+04   -0.10571E+01   -0.30320E+00  1590   0.206E+00    0.699E+00
RMM:  12    -0.117129307005E+04    0.56594E+00   -0.37205E-01  1588   0.699E-01    0.517E+00
RMM:  13    -0.117094217124E+04    0.35090E+00   -0.15145E+00  1584   0.137E+00    0.130E+00
RMM:  14    -0.117091435383E+04    0.27817E-01   -0.76040E-02  1594   0.321E-01    0.877E-01
RMM:  15    -0.117090921424E+04    0.51396E-02   -0.17344E-02  1584   0.142E-01    0.353E-01
RMM:  16    -0.117090924403E+04   -0.29791E-04   -0.41710E-03  1592   0.722E-02    0.258E-01
RMM:  17    -0.117090883514E+04    0.40889E-03   -0.31607E-03  1584   0.593E-02    0.121E-01
RMM:  18    -0.117090884264E+04   -0.75023E-05   -0.12226E-03  1567   0.391E-02    0.805E-02
RMM:  19    -0.117090885811E+04   -0.15471E-04   -0.23709E-04  1115   0.193E-02
   1 F= -.11780821E+04 E0= -.11780821E+04  d E =-.117808E+04  mag=     0.9973
       N       E                     dE             d eps       ncg     rms          rms(c)
DAV:   1    -0.117090722299E+04    0.16196E-02   -0.12528E+00  1692   0.161E+00    0.398E-01
RMM:   2    -0.117090942641E+04   -0.22034E-02   -0.27952E-02  1584   0.221E-01    0.369E-01
RMM:   3    -0.117090931343E+04    0.11298E-03   -0.18272E-03  1564   0.482E-02    0.338E-01
RMM:   4    -0.117090871242E+04    0.60101E-03   -0.19542E-03  1580   0.505E-02    0.149E-01
RMM:   5    -0.117090875438E+04   -0.41953E-04   -0.67226E-04  1514   0.300E-02
   2 F= -.11780826E+04 E0= -.11780826E+04  d E =-.431809E-03  mag=     1.0003
       N       E                     dE             d eps       ncg     rms          rms(c)
DAV:   1    -0.117091081333E+04   -0.21009E-02   -0.29980E-01  1620   0.788E-01    0.186E-01
RMM:   2    -0.117091115033E+04   -0.33700E-03   -0.56432E-03  1584   0.103E-01    0.171E-01
RMM:   3    -0.117091105141E+04    0.98916E-04   -0.32514E-04  1134   0.221E-02
   3 F= -.11780846E+04 E0= -.11780846E+04  d E =-.246770E-02  mag=     0.9999
       N       E                     dE             d eps       ncg     rms          rms(c)
DAV:   1    -0.117090961329E+04    0.15370E-02   -0.96242E-01  1620   0.139E+00    0.250E-01
RMM:   2    -0.117091116610E+04   -0.15528E-02   -0.17569E-02  1586   0.181E-01    0.215E-01
RMM:   3    -0.117091107943E+04    0.86671E-04   -0.86840E-04  1346   0.377E-02
   4 F= -.11780848E+04 E0= -.11780848E+04  d E =-.188039E-03  mag=     1.0000
       N       E                     dE             d eps       ncg     rms          rms(c)
DAV:   1    -0.117091138675E+04   -0.22065E-03   -0.17586E-01  1728   0.600E-01    0.874E-02
RMM:   2    -0.117091177389E+04   -0.38714E-03   -0.39322E-03  1584   0.882E-02    0.629E-02
RMM:   3    -0.117091176273E+04    0.11156E-04   -0.15596E-04  1058   0.175E-02
   5 F= -.11780854E+04 E0= -.11780854E+04  d E =-.806047E-03  mag=     1.0000
