       N       E                     dE             d eps       ncg     rms          rms(c)
DAV:   1     0.485030072821E+04    0.48503E+04   -0.17180E+05  1872   0.912E+02
DAV:   2    -0.656225790171E+02   -0.49159E+04   -0.44858E+04  2520   0.207E+02
DAV:   3    -0.118805663310E+04   -0.11224E+04   -0.11158E+04  2088   0.109E+02
DAV:   4    -0.123415402059E+04   -0.46097E+02   -0.45862E+02  2016   0.289E+01
DAV:   5    -0.123534991510E+04   -0.11959E+01   -0.11938E+01  2412   0.436E+00    0.658E+01
RMM:   6    -0.121828052528E+04    0.17069E+02   -0.27825E+01  1584   0.533E+00    0.532E+01
RMM:   7    -0.120366957876E+04    0.14611E+02   -0.71620E+00  1584   0.302E+00    0.427E+01
RMM:   8    -0.117764428341E+04    0.26025E+02   -0.31075E+01  1584   0.638E+00    0.279E+01
RMM:   9    -0.116810338134E+04    0.95409E+01   -0.14231E+01  1584   0.435E+00    0.201E+01
RMM:  10    -0.116598036428E+04    0.21230E+01   -0.12623E+01  1584   0.406E+00    0.122E+01
RMM:  11    -0.116717284698E+04   -0.11925E+01   -0.34023E+00  1591   0.217E+00    0.680E+00
RMM:  12    -0.116652420230E+04    0.64864E+00   -0.21864E+00  1584   0.157E+00    0.284E+00
RMM:  13    -0.116634560851E+04    0.17859E+00   -0.24147E-01  1585   0.492E-01    0.857E-01
RMM:  14    -0.116632463662E+04    0.20972E-01   -0.44327E-02  1605   0.190E-01    0.505E-01
RMM:  15    -0.116632464992E+04   -0.13296E-04   -0.14410E-02  1590   0.116E-01    0.340E-01
RMM:  16    -0.116632264337E+04    0.20065E-02   -0.31789E-03  1583   0.621E-02    0.134E-01
RMM:  17    -0.116632281908E+04   -0.17571E-03   -0.63858E-04  1243   0.278E-02    0.751E-02
RMM:  18    -0.116632286985E+04   -0.50768E-04   -0.23009E-04  1112   0.174E-02
   1 F= -.11734719E+04 E0= -.11734719E+04  d E =-.117347E+04  mag=     0.0017
       N       E                     dE             d eps       ncg     rms          rms(c)
DAV:   1    -0.116632299624E+04   -0.17716E-03   -0.60286E-01  1692   0.115E+00    0.256E-01
RMM:   2    -0.116632380841E+04   -0.81217E-03   -0.14897E-02  1586   0.159E-01    0.244E-01
RMM:   3    -0.116632349855E+04    0.30986E-03   -0.82576E-04  1401   0.351E-02    0.230E-01
RMM:   4    -0.116632242286E+04    0.10757E-02   -0.28795E-03  1584   0.606E-02    0.950E-02
RMM:   5    -0.116632243111E+04   -0.82531E-05   -0.49793E-04  1504   0.262E-02
   2 F= -.11734721E+04 E0= -.11734721E+04  d E =-.222349E-03  mag=     0.0004
       N       E                     dE             d eps       ncg     rms          rms(c)
DAV:   1    -0.116632411484E+04   -0.16920E-02   -0.14674E-01  1656   0.569E-01    0.119E-01
RMM:   2    -0.116632421277E+04   -0.97929E-04   -0.32007E-03  1584   0.750E-02    0.109E-01
RMM:   3    -0.116632410028E+04    0.11250E-03   -0.15320E-04  1068   0.165E-02    0.100E-01
RMM:   4    -0.116632382548E+04    0.27480E-03   -0.70347E-04  1562   0.302E-02    0.406E-02
RMM:   5    -0.116632382586E+04   -0.38612E-06   -0.11466E-04  1011   0.135E-02
   3 F= -.11734731E+04 E0= -.11734731E+04  d E =-.128771E-02  mag=     0.0001
       N       E                     dE             d eps       ncg     rms          rms(c)
DAV:   1    -0.116632510545E+04   -0.12800E-02   -0.24217E-01  1656   0.686E-01    0.164E-01
RMM:   2    -0.116632520411E+04   -0.98660E-04   -0.47405E-03  1584   0.852E-02    0.147E-01
RMM:   3    -0.116632502067E+04    0.18344E-03   -0.21682E-04  1081   0.187E-02    0.135E-01
RMM:   4    -0.116632462585E+04    0.39482E-03   -0.14050E-03  1584   0.414E-02    0.471E-02
RMM:   5    -0.116632464271E+04   -0.16863E-04   -0.10318E-04  1022   0.130E-02
   4 F= -.11734745E+04 E0= -.11734745E+04  d E =-.131064E-02  mag=     0.0000
       N       E                     dE             d eps       ncg     rms          rms(c)
DAV:   1    -0.116632460180E+04    0.24054E-04   -0.72135E-03  1872   0.119E-01    0.353E-02
RMM:   2    -0.116632460611E+04   -0.43114E-05   -0.16761E-04  1008   0.182E-02
   5 F= -.11734745E+04 E0= -.11734745E+04  d E =-.135731E-02  mag=     0.0000
       N       E                     dE             d eps       ncg     rms          rms(c)
DAV:   1    -0.116632499282E+04   -0.39102E-03   -0.74758E-02  1728   0.403E-01    0.909E-02
RMM:   2    -0.116632504611E+04   -0.53295E-04   -0.16294E-03  1562   0.532E-02    0.835E-02
RMM:   3    -0.116632498434E+04    0.61769E-04   -0.65024E-05   999   0.116E-02
   6 F= -.11734751E+04 E0= -.11734751E+04  d E =-.602926E-03  mag=    -0.0000
       N       E                     dE             d eps       ncg     rms          rms(c)
DAV:   1    -0.116632431908E+04    0.72704E-03   -0.16771E-01  1728   0.603E-01    0.121E-01
RMM:   2    -0.116632443650E+04   -0.11742E-03   -0.29294E-03  1584   0.742E-02    0.112E-01
RMM:   3    -0.116632434353E+04    0.92965E-04   -0.12885E-04  1072   0.160E-02
   7 F= -.11734748E+04 E0= -.11734748E+04  d E =-.309650E-03  mag=     0.0000
