       N       E                     dE             d eps       ncg     rms          rms(c)
DAV:   1     0.479568620012E+04    0.47957E+04   -0.17232E+05  1824   0.929E+02
DAV:   2    -0.672257052561E+02   -0.48629E+04   -0.44157E+04  2464   0.211E+02
DAV:   3    -0.118398962281E+04   -0.11168E+04   -0.11060E+04  2016   0.110E+02
DAV:   4    -0.123058615865E+04   -0.46597E+02   -0.46349E+02  1920   0.298E+01
DAV:   5    -0.123181718598E+04   -0.12310E+01   -0.12287E+01  2304   0.456E+00    0.746E+01
RMM:   6    -0.121565754055E+04    0.16160E+02   -0.46676E+01  1633   0.690E+00    0.550E+01
RMM:   7    -0.120146884933E+04    0.14189E+02   -0.10003E+01  1544   0.408E+00    0.437E+01
RMM:   8    -0.118463915886E+04    0.16830E+02   -0.13802E+01  1549   0.478E+00    0.333E+01
RMM:   9    -0.116319155973E+04    0.21448E+02   -0.46487E+01  1690   0.836E+00    0.197E+01
RMM:  10    -0.116220912158E+04    0.98244E+00   -0.12879E+01  1550   0.492E+00    0.124E+01
RMM:  11    -0.116312700799E+04   -0.91789E+00   -0.28710E+00  1573   0.250E+00    0.720E+00
RMM:  12    -0.116300363132E+04    0.12338E+00   -0.53916E-01  1563   0.101E+00    0.394E+00
RMM:  13    -0.116270259014E+04    0.30104E+00   -0.38217E-01  1536   0.821E-01    0.290E+00
RMM:  14    -0.116272462970E+04   -0.22040E-01   -0.45934E-01  1594   0.808E-01    0.157E+00
RMM:  15    -0.116268205693E+04    0.42573E-01   -0.50883E-02  1569   0.349E-01    0.571E-01
RMM:  16    -0.116268345818E+04   -0.14013E-02   -0.28036E-02  1552   0.216E-01    0.246E-01
RMM:  17    -0.116268354950E+04   -0.91316E-04   -0.37516E-03  1549   0.972E-02    0.183E-01
RMM:  18    -0.116268386721E+04   -0.31771E-03   -0.14188E-03  1620   0.536E-02    0.130E-01
RMM:  19    -0.116268384923E+04    0.17976E-04   -0.11530E-03  1560   0.468E-02    0.682E-02
RMM:  20    -0.116268392747E+04   -0.78240E-04   -0.24927E-04  1545   0.236E-02    0.422E-02
RMM:  21    -0.116268392944E+04   -0.19635E-05   -0.55730E-05  1645   0.117E-02    0.242E-02
RMM:  22    -0.116268393215E+04   -0.27163E-05   -0.19155E-05  1609   0.639E-03    0.245E-02
RMM:  23    -0.116268392393E+04    0.82255E-05   -0.36364E-05  1548   0.810E-03    0.116E-02
RMM:  24    -0.116268392470E+04   -0.77201E-06   -0.47894E-06  1216   0.318E-03
   1 F= -.11626839E+04 E0= -.11626839E+04  d E =-.116268E+04  mag=     3.0005
       N       E                     dE             d eps       ncg     rms          rms(c)
DAV:   1    -0.116264599753E+04    0.37926E-01   -0.13219E+01  1760   0.532E+00    0.107E+00
RMM:   2    -0.116267193059E+04   -0.25933E-01   -0.28667E-01  1602   0.843E-01    0.111E+00
RMM:   3    -0.116267830815E+04   -0.63776E-02   -0.73682E-02  1766   0.341E-01    0.100E+00
RMM:   4    -0.116267541644E+04    0.28917E-02   -0.12746E-02  1780   0.147E-01    0.893E-01
RMM:   5    -0.116266870178E+04    0.67147E-02   -0.21928E-02  1581   0.172E-01    0.491E-01
RMM:   6    -0.116266829740E+04    0.40437E-03   -0.12110E-02  1570   0.130E-01    0.340E-01
RMM:   7    -0.116266812214E+04    0.17526E-03   -0.15823E-03  1852   0.553E-02    0.283E-01
RMM:   8    -0.116266774199E+04    0.38014E-03   -0.15343E-03  1597   0.476E-02    0.145E-01
RMM:   9    -0.116266774625E+04   -0.42531E-05   -0.51949E-04  1656   0.302E-02    0.947E-02
RMM:  10    -0.116266776590E+04   -0.19650E-04   -0.29070E-04  1653   0.216E-02    0.706E-02
RMM:  11    -0.116266776219E+04    0.37072E-05   -0.52115E-05  1550   0.112E-02    0.391E-02
RMM:  12    -0.116266775503E+04    0.71551E-05   -0.27137E-05  1548   0.616E-03    0.304E-02
RMM:  13    -0.116266775254E+04    0.24950E-05   -0.23958E-05  1544   0.585E-03    0.143E-02
RMM:  14    -0.116266775222E+04    0.32187E-06   -0.42632E-06  1251   0.291E-03
   2 F= -.11626678E+04 E0= -.11626678E+04  d E =0.161725E-01  mag=     3.0000
       N       E                     dE             d eps       ncg     rms          rms(c)
DAV:   1    -0.116270288167E+04   -0.35129E-01   -0.42109E+00  1664   0.304E+00    0.624E-01
RMM:   2    -0.116270982889E+04   -0.69472E-02   -0.80801E-02  1594   0.471E-01    0.618E-01
RMM:   3    -0.116271117629E+04   -0.13474E-02   -0.19008E-02  1685   0.186E-01    0.537E-01
RMM:   4    -0.116271023164E+04    0.94466E-03   -0.35593E-03  1726   0.810E-02    0.474E-01
RMM:   5    -0.116270824595E+04    0.19857E-02   -0.65973E-03  1579   0.962E-02    0.227E-01
RMM:   6    -0.116270820133E+04    0.44621E-04   -0.32798E-03  1579   0.685E-02    0.156E-01
RMM:   7    -0.116270813807E+04    0.63259E-04   -0.36260E-04  1699   0.291E-02    0.121E-01
RMM:   8    -0.116270813461E+04    0.34665E-05   -0.42292E-04  1569   0.252E-02    0.587E-02
RMM:   9    -0.116270810528E+04    0.29325E-04   -0.15126E-04  1563   0.175E-02    0.445E-02
RMM:  10    -0.116270810960E+04   -0.43226E-05   -0.60096E-05  1643   0.956E-03    0.289E-02
RMM:  11    -0.116270810944E+04    0.16890E-06   -0.96324E-06  1472   0.439E-03
   3 F= -.11627081E+04 E0= -.11627081E+04  d E =-.241847E-01  mag=     3.0000
       N       E                     dE             d eps       ncg     rms          rms(c)
DAV:   1    -0.116268466405E+04    0.23446E-01   -0.65952E+00  1728   0.497E+00    0.996E-01
RMM:   2    -0.116271066482E+04   -0.26001E-01   -0.26436E-01  1624   0.688E-01    0.769E-01
RMM:   3    -0.116271782856E+04   -0.71637E-02   -0.75025E-02  1664   0.276E-01    0.518E-01
RMM:   4    -0.116271731873E+04    0.50983E-03   -0.81020E-03  1738   0.115E-01    0.393E-01
RMM:   5    -0.116271588494E+04    0.14338E-02   -0.44972E-03  1588   0.840E-02    0.207E-01
RMM:   6    -0.116271570115E+04    0.18379E-03   -0.22827E-03  1578   0.619E-02    0.118E-01
RMM:   7    -0.116271571447E+04   -0.13329E-04   -0.44263E-04  1617   0.324E-02    0.617E-02
RMM:   8    -0.116271572831E+04   -0.13837E-04   -0.18292E-04  1654   0.186E-02    0.367E-02
RMM:   9    -0.116271570524E+04    0.23070E-04   -0.73662E-05  1579   0.109E-02    0.249E-02
RMM:  10    -0.116271569692E+04    0.83178E-05   -0.45288E-05  1558   0.900E-03    0.109E-02
RMM:  11    -0.116271569565E+04    0.12750E-05   -0.65437E-06  1524   0.411E-03    0.800E-03
RMM:  12    -0.116271569447E+04    0.11795E-05   -0.53005E-06  1412   0.296E-03    0.404E-03
RMM:  13    -0.116271569428E+04    0.18511E-06   -0.12936E-06  1035   0.171E-03
   4 F= -.11627157E+04 E0= -.11627157E+04  d E =-.758485E-02  mag=     3.0000
       N       E                     dE             d eps       ncg     rms          rms(c)
DAV:   1    -0.116271656006E+04   -0.86559E-03   -0.10474E+00  1696   0.198E+00    0.404E-01
RMM:   2    -0.116272065747E+04   -0.40974E-02   -0.41730E-02  1624   0.273E-01    0.309E-01
RMM:   3    -0.116272179884E+04   -0.11414E-02   -0.11966E-02  1666   0.111E-01    0.202E-01
RMM:   4    -0.116272172620E+04    0.72635E-04   -0.12728E-03  1735   0.458E-02    0.154E-01
RMM:   5    -0.116272150879E+04    0.21741E-03   -0.70163E-04  1592   0.331E-02    0.804E-02
RMM:   6    -0.116272148740E+04    0.21388E-04   -0.38415E-04  1578   0.255E-02    0.427E-02
RMM:   7    -0.116272149476E+04   -0.73621E-05   -0.64367E-05  1617   0.125E-02    0.242E-02
RMM:   8    -0.116272149686E+04   -0.20961E-05   -0.29460E-05  1594   0.725E-03    0.140E-02
RMM:   9    -0.116272149408E+04    0.27821E-05   -0.11241E-05  1505   0.426E-03    0.999E-03
RMM:  10    -0.116272149331E+04    0.76916E-06   -0.58947E-06  1482   0.331E-03
   5 F= -.11627215E+04 E0= -.11627215E+04  d E =-.133839E-01  mag=     3.0000
       N       E                     dE             d eps       ncg     rms          rms(c)
DAV:   1    -0.116266456759E+04    0.56926E-01   -0.50656E+00  1760   0.524E+00    0.127E+00
RMM:   2    -0.116271405620E+04   -0.49489E-01   -0.47291E-01  1639   0.705E-01    0.826E-01
RMM:   3    -0.116273141849E+04   -0.17362E-01   -0.14677E-01  1656   0.291E-01    0.379E-01
RMM:   4    -0.116273205775E+04   -0.63926E-03   -0.11316E-02  1743   0.110E-01    0.312E-01
RMM:   5    -0.116273133182E+04    0.72593E-03   -0.25611E-03  1593   0.626E-02    0.179E-01
RMM:   6    -0.116273106430E+04    0.26752E-03   -0.15779E-03  1574   0.516E-02    0.107E-01
RMM:   7    -0.116273112087E+04   -0.56573E-04   -0.29626E-04  1607   0.267E-02    0.481E-02
RMM:   8    -0.116273115013E+04   -0.29258E-04   -0.12905E-04  1604   0.158E-02    0.334E-02
RMM:   9    -0.116273113574E+04    0.14388E-04   -0.44812E-05  1554   0.947E-03    0.179E-02
RMM:  10    -0.116273113852E+04   -0.27763E-05   -0.20334E-05  1557   0.610E-03    0.993E-03
RMM:  11    -0.116273113847E+04    0.54082E-07   -0.37904E-06  1147   0.295E-03
   6 F= -.11627311E+04 E0= -.11627311E+04  d E =-.964516E-02  mag=     3.0000
       N       E                     dE             d eps       ncg     rms          rms(c)
DAV:   1    -0.116272935688E+04    0.17816E-02   -0.17958E-01  1920   0.989E-01    0.238E-01
RMM:   2    -0.116273109913E+04   -0.17423E-02   -0.16773E-02  1637   0.133E-01    0.156E-01
RMM:   3    -0.116273173098E+04   -0.63185E-03   -0.52443E-03  1656   0.551E-02    0.658E-02
RMM:   4    -0.116273175588E+04   -0.24902E-04   -0.40194E-04  1740   0.207E-02    0.556E-02
RMM:   5    -0.116273173080E+04    0.25075E-04   -0.12394E-04  1595   0.136E-02    0.269E-02
RMM:   6    -0.116273173200E+04   -0.11977E-05   -0.50914E-05  1573   0.943E-03    0.160E-02
RMM:   7    -0.116273173604E+04   -0.40357E-05   -0.73617E-06  1452   0.425E-03    0.962E-03
RMM:   8    -0.116273173735E+04   -0.13157E-05   -0.42117E-06  1234   0.275E-03    0.564E-03
RMM:   9    -0.116273173747E+04   -0.12041E-06   -0.13756E-06  1051   0.170E-03
   7 F= -.11627317E+04 E0= -.11627317E+04  d E =-.102442E-01  mag=     3.0000
       N       E                     dE             d eps       ncg     rms          rms(c)
DAV:   1    -0.116265349874E+04    0.78239E-01   -0.43477E+00  1856   0.513E+00    0.139E+00
RMM:   2    -0.116271552455E+04   -0.62026E-01   -0.57724E-01  1640   0.695E-01    0.877E-01
RMM:   3    -0.116273906143E+04   -0.23537E-01   -0.18111E-01  1677   0.283E-01    0.351E-01
RMM:   4    -0.116274022428E+04   -0.11628E-02   -0.12280E-02  1760   0.101E-01    0.289E-01
RMM:   5    -0.116274012464E+04    0.99640E-04   -0.15270E-03  1635   0.458E-02    0.182E-01
RMM:   6    -0.116273995732E+04    0.16732E-03   -0.97632E-04  1589   0.400E-02    0.103E-01
RMM:   7    -0.116274001751E+04   -0.60196E-04   -0.19542E-04  1604   0.217E-02    0.450E-02
RMM:   8    -0.116274004118E+04   -0.23669E-04   -0.87190E-05  1624   0.130E-02    0.310E-02
RMM:   9    -0.116274004270E+04   -0.15158E-05   -0.23365E-05  1622   0.681E-03    0.174E-02
RMM:  10    -0.116274004289E+04   -0.19158E-06   -0.11654E-05  1512   0.449E-03    0.924E-03
RMM:  11    -0.116274004389E+04   -0.10054E-05   -0.30189E-06  1140   0.261E-03    0.485E-03
RMM:  12    -0.116274004366E+04    0.23736E-06   -0.99981E-07  1062   0.134E-03
   8 F= -.11627400E+04 E0= -.11627400E+04  d E =-.830618E-02  mag=     3.0000
       N       E                     dE             d eps       ncg     rms          rms(c)
DAV:   1    -0.116274002158E+04    0.22308E-04   -0.12112E-03  2048   0.858E-02    0.228E-02
RMM:   2    -0.116274003778E+04   -0.16198E-04   -0.16079E-04  1570   0.116E-02    0.146E-02
RMM:   3    -0.116274004511E+04   -0.73323E-05   -0.50112E-05  1226   0.481E-03    0.555E-03
RMM:   4    -0.116274004554E+04   -0.42560E-06   -0.42543E-06  1061   0.183E-03
   9 F= -.11627400E+04 E0= -.11627400E+04  d E =-.830807E-02  mag=     3.0000
       N       E                     dE             d eps       ncg     rms          rms(c)
DAV:   1    -0.116268499092E+04    0.55054E-01   -0.26735E+00  1920   0.409E+00    0.113E+00
RMM:   2    -0.116272747280E+04   -0.42482E-01   -0.39167E-01  1643   0.549E-01    0.714E-01
RMM:   3    -0.116274389658E+04   -0.16424E-01   -0.12394E-01  1685   0.222E-01    0.268E-01
RMM:   4    -0.116274466369E+04   -0.76711E-03   -0.72285E-03  1779   0.746E-02    0.221E-01
RMM:   5    -0.116274470234E+04   -0.38648E-04   -0.81885E-04  1662   0.334E-02    0.131E-01
RMM:   6    -0.116274464922E+04    0.53111E-04   -0.41469E-04  1627   0.255E-02    0.751E-02
RMM:   7    -0.116274471359E+04   -0.64362E-04   -0.87918E-05  1632   0.143E-02    0.311E-02
RMM:   8    -0.116274472733E+04   -0.13744E-04   -0.33539E-05  1598   0.807E-03    0.215E-02
RMM:   9    -0.116274473048E+04   -0.31493E-05   -0.99814E-06  1541   0.416E-03    0.154E-02
RMM:  10    -0.116274473118E+04   -0.70462E-06   -0.54942E-06  1291   0.303E-03
  10 F= -.11627447E+04 E0= -.11627447E+04  d E =-.468564E-02  mag=     3.0000
       N       E                     dE             d eps       ncg     rms          rms(c)
DAV:   1    -0.116274443658E+04    0.29390E-03   -0.14651E-02  2080   0.303E-01    0.838E-02
RMM:   2    -0.116274466074E+04   -0.22416E-03   -0.21338E-03  1644   0.407E-02    0.528E-02
RMM:   3    -0.116274475650E+04   -0.95758E-04   -0.68079E-04  1664   0.166E-02    0.187E-02
RMM:   4    -0.116274476180E+04   -0.53027E-05   -0.40207E-05  1324   0.562E-03    0.160E-02
RMM:   5    -0.116274476140E+04    0.40155E-06   -0.86676E-06  1227   0.317E-03
  11 F= -.11627448E+04 E0= -.11627447E+04  d E =-.471586E-02  mag=     3.0000
       N       E                     dE             d eps       ncg     rms          rms(c)
DAV:   1    -0.116272847993E+04    0.16282E-01   -0.10018E+00  1824   0.247E+00    0.629E-01
RMM:   2    -0.116274175346E+04   -0.13274E-01   -0.12416E-01  1636   0.340E-01    0.406E-01
RMM:   3    -0.116274667021E+04   -0.49168E-02   -0.38804E-02  1676   0.140E-01    0.168E-01
RMM:   4    -0.116274689359E+04   -0.22338E-03   -0.27292E-03  1785   0.503E-02    0.141E-01
RMM:   5    -0.116274679573E+04    0.97860E-04   -0.52331E-04  1594   0.288E-02    0.719E-02
RMM:   6    -0.116274677192E+04    0.23817E-04   -0.26018E-04  1582   0.215E-02    0.406E-02
RMM:   7    -0.116274680163E+04   -0.29709E-04   -0.41856E-05  1617   0.102E-02    0.219E-02
RMM:   8    -0.116274680766E+04   -0.60303E-05   -0.22305E-05  1570   0.646E-03    0.147E-02
RMM:   9    -0.116274680917E+04   -0.15108E-05   -0.78261E-06  1539   0.384E-03    0.820E-03
RMM:  10    -0.116274681114E+04   -0.19768E-05   -0.41291E-06  1319   0.269E-03    0.441E-03
RMM:  11    -0.116274681127E+04   -0.12487E-06   -0.76799E-07  1035   0.131E-03
  12 F= -.11627468E+04 E0= -.11627467E+04  d E =-.204987E-02  mag=     3.0000
       N       E                     dE             d eps       ncg     rms          rms(c)
DAV:   1    -0.116274637820E+04    0.43294E-03   -0.28908E-02  1984   0.420E-01    0.107E-01
RMM:   2    -0.116274675014E+04   -0.37194E-03   -0.35727E-03  1635   0.579E-02    0.688E-02
RMM:   3    -0.116274689807E+04   -0.14793E-03   -0.11199E-03  1673   0.239E-02    0.279E-02
RMM:   4    -0.116274690531E+04   -0.72446E-05   -0.77012E-05  1711   0.858E-03    0.237E-02
RMM:   5    -0.116274690105E+04    0.42603E-05   -0.20655E-05  1587   0.567E-03    0.104E-02
RMM:   6    -0.116274690150E+04   -0.44734E-06   -0.68068E-06  1535   0.355E-03
  13 F= -.11627469E+04 E0= -.11627468E+04  d E =-.214010E-02  mag=     3.0000
