       N       E                     dE             d eps       ncg     rms          rms(c)
DAV:   1     0.455345169170E+04    0.45535E+04   -0.17627E+05  1920   0.933E+02
DAV:   2    -0.890871946523E+02   -0.46425E+04   -0.42106E+04  2464   0.211E+02
DAV:   3    -0.118362257470E+04   -0.10945E+04   -0.10888E+04  1984   0.110E+02
DAV:   4    -0.123096712969E+04   -0.47345E+02   -0.47037E+02  1984   0.319E+01
DAV:   5    -0.123239606512E+04   -0.14289E+01   -0.14249E+01  2304   0.501E+00    0.702E+01
RMM:   6    -0.121262388383E+04    0.19772E+02   -0.13009E+01  1595   0.463E+00    0.499E+01
RMM:   7    -0.119594629890E+04    0.16678E+02   -0.14518E+01  1548   0.492E+00    0.393E+01
RMM:   8    -0.116857072783E+04    0.27376E+02   -0.45443E+01  1607   0.868E+00    0.240E+01
RMM:   9    -0.116362943198E+04    0.49413E+01   -0.20796E+01  1584   0.644E+00    0.150E+01
RMM:  10    -0.116467941780E+04   -0.10500E+01   -0.10365E+01  1613   0.465E+00    0.838E+00
RMM:  11    -0.116464909846E+04    0.30319E-01   -0.13315E+00  1650   0.220E+00    0.569E+00
RMM:  12    -0.116446763513E+04    0.18146E+00   -0.17932E+00  1541   0.178E+00    0.235E+00
RMM:  13    -0.116450505597E+04   -0.37421E-01   -0.24765E-01  1629   0.873E-01    0.947E-01
RMM:  14    -0.116450381100E+04    0.12450E-02   -0.65149E-02  1701   0.380E-01    0.588E-01
RMM:  15    -0.116450062251E+04    0.31885E-02   -0.27266E-02  1669   0.239E-01    0.385E-01
RMM:  16    -0.116450174950E+04   -0.11270E-02   -0.77471E-03  1671   0.141E-01    0.183E-01
RMM:  17    -0.116450212067E+04   -0.37116E-03   -0.27438E-03  1908   0.669E-02    0.174E-01
RMM:  18    -0.116450216414E+04   -0.43474E-04   -0.40385E-04  1615   0.278E-02    0.129E-01
RMM:  19    -0.116450272807E+04   -0.56393E-03   -0.80803E-04  1557   0.408E-02    0.724E-02
RMM:  20    -0.116450279023E+04   -0.62165E-04   -0.12788E-04  1720   0.180E-02    0.527E-02
RMM:  21    -0.116450282748E+04   -0.37251E-04   -0.40893E-05  1562   0.935E-03    0.430E-02
RMM:  22    -0.116450286352E+04   -0.36039E-04   -0.44030E-05  1588   0.902E-03    0.346E-02
RMM:  23    -0.116450290150E+04   -0.37976E-04   -0.32403E-05  1591   0.804E-03    0.306E-02
RMM:  24    -0.116450292635E+04   -0.24845E-04   -0.55419E-05  1617   0.941E-03    0.284E-02
RMM:  25    -0.116450296964E+04   -0.43296E-04   -0.12992E-05  1412   0.536E-03    0.231E-02
RMM:  26    -0.116450291245E+04    0.57189E-04   -0.89091E-05  1722   0.114E-02    0.235E-02
RMM:  27    -0.116450301090E+04   -0.98450E-04   -0.11859E-05  1263   0.476E-03    0.149E-02
RMM:  28    -0.116450299971E+04    0.11194E-04   -0.28554E-05  1589   0.640E-03    0.849E-03
RMM:  29    -0.116450304950E+04   -0.49788E-04   -0.37085E-06  1088   0.338E-03    0.549E-03
RMM:  30    -0.116450305839E+04   -0.88894E-05   -0.18598E-06  1079   0.224E-03    0.393E-03
RMM:  31    -0.116450306130E+04   -0.29114E-05   -0.59367E-07  1028   0.160E-03    0.306E-03
RMM:  32    -0.116450306341E+04   -0.21090E-05   -0.60103E-07  1023   0.113E-03    0.191E-03
RMM:  33    -0.116450306522E+04   -0.18171E-05   -0.11998E-07   968   0.820E-04    0.147E-03
RMM:  34    -0.116450306570E+04   -0.47724E-06   -0.76274E-08   822   0.487E-04
   1 F= -.11645031E+04 E0= -.11645031E+04  d E =-.116450E+04  mag=     3.0000
       N       E                     dE             d eps       ncg     rms          rms(c)
DAV:   1    -0.116441816736E+04    0.84898E-01   -0.24303E+01  1760   0.742E+00    0.124E+00
RMM:   2    -0.116446608290E+04   -0.47916E-01   -0.53580E-01  1590   0.135E+00    0.209E+00
RMM:   3    -0.116448473996E+04   -0.18657E-01   -0.17150E-01  1853   0.574E-01    0.192E+00
RMM:   4    -0.116448741879E+04   -0.26788E-02   -0.31082E-02  1884   0.209E-01    0.200E+00
RMM:   5    -0.116449010392E+04   -0.26851E-02   -0.35743E-03  1874   0.686E-02    0.194E+00
RMM:   6    -0.116451544397E+04   -0.25340E-01   -0.25710E-02  1611   0.182E-01    0.154E+00
RMM:   7    -0.116452015866E+04   -0.47147E-02   -0.10446E-02  1720   0.136E-01    0.167E+00
RMM:   8    -0.116450156088E+04    0.18598E-01   -0.81456E-03  1606   0.113E-01    0.178E+00
RMM:   9    -0.116448366778E+04    0.17893E-01   -0.21694E-02  1811   0.165E-01    0.141E+00
RMM:  10    -0.116448212979E+04    0.15380E-02   -0.25434E-03  1985   0.680E-02    0.131E+00
RMM:  11    -0.116448292657E+04   -0.79679E-03   -0.90458E-04  1566   0.361E-02    0.123E+00
RMM:  12    -0.116447453550E+04    0.83911E-02   -0.90276E-03  1985   0.112E-01    0.824E-01
RMM:  13    -0.116447170680E+04    0.28287E-02   -0.75591E-03  2000   0.952E-02    0.528E-01
RMM:  14    -0.116447155560E+04    0.15120E-03   -0.47147E-03  1917   0.742E-02    0.160E-01
RMM:  15    -0.116447164832E+04   -0.92721E-04   -0.41315E-04  1826   0.304E-02    0.979E-02
RMM:  16    -0.116447165558E+04   -0.72591E-05   -0.20131E-04  1627   0.194E-02    0.601E-02
RMM:  17    -0.116447164978E+04    0.58064E-05   -0.71539E-05  1631   0.116E-02    0.323E-02
RMM:  18    -0.116447165012E+04   -0.34914E-06   -0.34647E-05  1535   0.772E-03    0.356E-02
RMM:  19    -0.116447165227E+04   -0.21476E-05   -0.11271E-05  1443   0.453E-03    0.201E-02
RMM:  20    -0.116447164966E+04    0.26088E-05   -0.58314E-06  1303   0.378E-03    0.858E-03
RMM:  21    -0.116447165104E+04   -0.13758E-05   -0.13240E-06  1037   0.215E-03    0.881E-03
RMM:  22    -0.116447165108E+04   -0.45045E-07   -0.71056E-07  1022   0.164E-03
   2 F= -.11644717E+04 E0= -.11644717E+04  d E =0.314146E-01  mag=     3.0000
       N       E                     dE             d eps       ncg     rms          rms(c)
DAV:   1    -0.116451061195E+04   -0.38961E-01   -0.88433E+00  1728   0.446E+00    0.744E-01
RMM:   2    -0.116452563898E+04   -0.15027E-01   -0.17840E-01  1562   0.820E-01    0.124E+00
RMM:   3    -0.116453137840E+04   -0.57394E-02   -0.52627E-02  1804   0.349E-01    0.111E+00
RMM:   4    -0.116453198706E+04   -0.60865E-03   -0.10095E-02  1899   0.131E-01    0.119E+00
RMM:   5    -0.116453236211E+04   -0.37505E-03   -0.98539E-04  1904   0.383E-02    0.116E+00
RMM:   6    -0.116453555911E+04   -0.31970E-02   -0.31749E-03  1575   0.597E-02    0.946E-01
RMM:   7    -0.116454697177E+04   -0.11413E-01   -0.17609E-02  1889   0.143E-01    0.172E+00
RMM:   8    -0.116454138815E+04    0.55836E-02   -0.36488E-03  1652   0.814E-02    0.207E+00
RMM:   9    -0.116453746722E+04    0.39209E-02   -0.20401E-03  1628   0.563E-02    0.186E+00
RMM:  10    -0.116453263158E+04    0.48356E-02   -0.32761E-03  1811   0.678E-02    0.144E+00
RMM:  11    -0.116452958129E+04    0.30503E-02   -0.23200E-03  1749   0.569E-02    0.118E+00
RMM:  12    -0.116452771391E+04    0.18674E-02   -0.19855E-03  1782   0.533E-02    0.774E-01
RMM:  13    -0.116452646681E+04    0.12471E-02   -0.39148E-03  1925   0.717E-02    0.185E-01
RMM:  14    -0.116452658452E+04   -0.11771E-03   -0.50305E-04  1949   0.273E-02    0.113E-01
RMM:  15    -0.116452659540E+04   -0.10882E-04   -0.26979E-04  1658   0.201E-02    0.532E-02
RMM:  16    -0.116452661691E+04   -0.21507E-04   -0.54705E-05  1778   0.104E-02    0.159E-02
RMM:  17    -0.116452661878E+04   -0.18725E-05   -0.12825E-05  1461   0.510E-03    0.146E-02
RMM:  18    -0.116452662124E+04   -0.24630E-05   -0.61807E-06  1237   0.361E-03    0.150E-02
RMM:  19    -0.116452662241E+04   -0.11702E-05   -0.33785E-06  1142   0.260E-03    0.135E-02
RMM:  20    -0.116452662163E+04    0.78724E-06   -0.20545E-06  1082   0.228E-03
   3 F= -.11645266E+04 E0= -.11645266E+04  d E =-.235559E-01  mag=     3.0000
       N       E                     dE             d eps       ncg     rms          rms(c)
DAV:   1    -0.116452402271E+04    0.25997E-02   -0.36290E+00  1568   0.300E+00    0.505E-01
RMM:   2    -0.116452891610E+04   -0.48934E-02   -0.61931E-02  1547   0.496E-01    0.680E-01
RMM:   3    -0.116453110359E+04   -0.21875E-02   -0.21458E-02  1783   0.221E-01    0.576E-01
RMM:   4    -0.116453101842E+04    0.85167E-04   -0.35962E-03  1828   0.856E-02    0.588E-01
RMM:   5    -0.116453041977E+04    0.59865E-03   -0.12841E-03  1576   0.442E-02    0.554E-01
RMM:   6    -0.116453085729E+04   -0.43752E-03   -0.94168E-03  1871   0.106E-01    0.516E-01
RMM:   7    -0.116452977609E+04    0.10812E-02   -0.91924E-04  1624   0.468E-02    0.438E-01
RMM:   8    -0.116452949898E+04    0.27711E-03   -0.10111E-03  1655   0.388E-02    0.375E-01
RMM:   9    -0.116452937807E+04    0.12091E-03   -0.35527E-04  1802   0.243E-02    0.327E-01
RMM:  10    -0.116452923980E+04    0.13828E-03   -0.23210E-04  1653   0.183E-02    0.256E-01
RMM:  11    -0.116452925091E+04   -0.11110E-04   -0.30706E-05  1813   0.941E-03    0.226E-01
RMM:  12    -0.116452918938E+04    0.61531E-04   -0.40618E-05  1565   0.764E-03    0.177E-01
RMM:  13    -0.116452914686E+04    0.42512E-04   -0.58593E-05  1635   0.854E-03    0.133E-01
RMM:  14    -0.116452914033E+04    0.65321E-05   -0.12769E-05  1531   0.502E-03    0.118E-01
RMM:  15    -0.116452913286E+04    0.74756E-05   -0.44503E-06  1245   0.340E-03    0.100E-01
RMM:  16    -0.116452911600E+04    0.16855E-04   -0.22455E-05  1650   0.545E-03    0.637E-02
RMM:  17    -0.116452910977E+04    0.62350E-05   -0.12939E-05  1551   0.485E-03    0.361E-02
RMM:  18    -0.116452910866E+04    0.11023E-05   -0.64449E-06  1395   0.380E-03    0.204E-02
RMM:  19    -0.116452910861E+04    0.56913E-07   -0.38739E-06  1197   0.326E-03
   4 F= -.11645291E+04 E0= -.11645291E+04  d E =-.248698E-02  mag=     3.0000
       N       E                     dE             d eps       ncg     rms          rms(c)
DAV:   1    -0.116453240838E+04   -0.32997E-02   -0.71076E-01  1664   0.133E+00    0.231E-01
RMM:   2    -0.116453337168E+04   -0.96330E-03   -0.12242E-02  1544   0.219E-01    0.301E-01
RMM:   3    -0.116453380233E+04   -0.43065E-03   -0.42859E-03  1784   0.981E-02    0.253E-01
RMM:   4    -0.116453378267E+04    0.19661E-04   -0.68504E-04  1825   0.375E-02    0.257E-01
RMM:   5    -0.116453366166E+04    0.12102E-03   -0.27567E-04  1568   0.204E-02    0.239E-01
RMM:   6    -0.116453372138E+04   -0.59723E-04   -0.16958E-03  1867   0.453E-02    0.222E-01
RMM:   7    -0.116453353713E+04    0.18424E-03   -0.17845E-04  1630   0.204E-02    0.187E-01
RMM:   8    -0.116453350243E+04    0.34707E-04   -0.17786E-04  1657   0.166E-02    0.160E-01
RMM:   9    -0.116453347156E+04    0.30872E-04   -0.80919E-05  1770   0.111E-02    0.136E-01
RMM:  10    -0.116453344816E+04    0.23400E-04   -0.52097E-05  1650   0.873E-03    0.988E-02
RMM:  11    -0.116453345326E+04   -0.51042E-05   -0.49881E-06  1304   0.425E-03    0.900E-02
RMM:  12    -0.116453344344E+04    0.98220E-05   -0.91258E-06  1437   0.390E-03    0.655E-02
RMM:  13    -0.116453343798E+04    0.54615E-05   -0.10076E-05  1438   0.396E-03    0.487E-02
RMM:  14    -0.116453343759E+04    0.38395E-06   -0.21154E-06  1088   0.284E-03
   5 F= -.11645334E+04 E0= -.11645334E+04  d E =-.681596E-02  mag=     3.0000
       N       E                     dE             d eps       ncg     rms          rms(c)
DAV:   1    -0.116453387812E+04   -0.44014E-03   -0.14305E+00  1696   0.212E+00    0.324E-01
RMM:   2    -0.116453616125E+04   -0.22831E-02   -0.30216E-02  1554   0.310E-01    0.296E-01
RMM:   3    -0.116453649604E+04   -0.33479E-03   -0.67641E-03  1796   0.132E-01    0.262E-01
RMM:   4    -0.116453604216E+04    0.45388E-03   -0.10747E-03  1693   0.513E-02    0.221E-01
RMM:   5    -0.116453544631E+04    0.59585E-03   -0.23178E-03  1561   0.596E-02    0.112E-01
RMM:   6    -0.116453547749E+04   -0.31180E-04   -0.85069E-04  1672   0.401E-02    0.731E-02
RMM:   7    -0.116453545013E+04    0.27357E-04   -0.13094E-04  1691   0.188E-02    0.524E-02
RMM:   8    -0.116453547425E+04   -0.24122E-04   -0.13481E-04  1615   0.140E-02    0.283E-02
RMM:   9    -0.116453547368E+04    0.57518E-06   -0.27825E-05  1765   0.805E-03    0.212E-02
RMM:  10    -0.116453547428E+04   -0.60802E-06   -0.18889E-05  1577   0.592E-03    0.949E-03
RMM:  11    -0.116453547375E+04    0.53326E-06   -0.24000E-06  1068   0.297E-03
   6 F= -.11645355E+04 E0= -.11645355E+04  d E =-.203616E-02  mag=     3.0000
       N       E                     dE             d eps       ncg     rms          rms(c)
DAV:   1    -0.116453632909E+04   -0.85480E-03   -0.19921E-01  1728   0.792E-01    0.124E-01
RMM:   2    -0.116453663275E+04   -0.30366E-03   -0.42314E-03  1554   0.116E-01    0.115E-01
RMM:   3    -0.116453667877E+04   -0.46015E-04   -0.94390E-04  1790   0.497E-02    0.100E-01
RMM:   4    -0.116453661156E+04    0.67201E-04   -0.15881E-04  1695   0.197E-02    0.836E-02
RMM:   5    -0.116453653237E+04    0.79199E-04   -0.31866E-04  1557   0.222E-02    0.430E-02
RMM:   6    -0.116453654039E+04   -0.80259E-05   -0.12345E-04  1671   0.153E-02    0.280E-02
RMM:   7    -0.116453654207E+04   -0.16792E-05   -0.19520E-05  1642   0.730E-03    0.203E-02
RMM:   8    -0.116453654947E+04   -0.74007E-05   -0.18422E-05  1566   0.531E-03    0.113E-02
RMM:   9    -0.116453655013E+04   -0.65811E-06   -0.36607E-06  1194   0.323E-03
   7 F= -.11645366E+04 E0= -.11645366E+04  d E =-.311254E-02  mag=     3.0000
       N       E                     dE             d eps       ncg     rms          rms(c)
DAV:   1    -0.116453487724E+04    0.16722E-02   -0.10512E+00  1696   0.190E+00    0.305E-01
RMM:   2    -0.116453792994E+04   -0.30527E-02   -0.35840E-02  1556   0.274E-01    0.231E-01
RMM:   3    -0.116453826465E+04   -0.33471E-03   -0.58697E-03  1735   0.111E-01    0.183E-01
RMM:   4    -0.116453805528E+04    0.20936E-03   -0.95909E-04  1681   0.470E-02    0.135E-01
RMM:   5    -0.116453808524E+04   -0.29953E-04   -0.75265E-04  1564   0.369E-02    0.759E-02
RMM:   6    -0.116453827026E+04   -0.18503E-03   -0.32677E-04  1725   0.268E-02    0.382E-02
RMM:   7    -0.116453831763E+04   -0.47366E-04   -0.59179E-05  1815   0.124E-02    0.260E-02
RMM:   8    -0.116453832825E+04   -0.10616E-04   -0.21231E-05  1568   0.597E-03    0.155E-02
RMM:   9    -0.116453833096E+04   -0.27143E-05   -0.16230E-05  1590   0.514E-03    0.853E-03
RMM:  10    -0.116453833339E+04   -0.24298E-05   -0.46605E-06  1295   0.372E-03    0.584E-03
RMM:  11    -0.116453833358E+04   -0.18682E-06   -0.14989E-06  1040   0.229E-03
   8 F= -.11645383E+04 E0= -.11645383E+04  d E =-.178345E-02  mag=     3.0000
       N       E                     dE             d eps       ncg     rms          rms(c)
DAV:   1    -0.116453834182E+04   -0.84320E-05   -0.75861E-02  1696   0.511E-01    0.823E-02
RMM:   2    -0.116453854538E+04   -0.20355E-03   -0.25924E-03  1557   0.738E-02    0.618E-02
RMM:   3    -0.116453856406E+04   -0.18683E-04   -0.41506E-04  1729   0.301E-02    0.488E-02
RMM:   4    -0.116453855090E+04    0.13161E-04   -0.78656E-05  1671   0.132E-02    0.351E-02
RMM:   5    -0.116453855791E+04   -0.70153E-05   -0.51178E-05  1569   0.967E-03    0.200E-02
RMM:   6    -0.116453858363E+04   -0.25719E-04   -0.23580E-05  1615   0.753E-03    0.938E-03
RMM:   7    -0.116453859145E+04   -0.78135E-05   -0.43488E-06  1226   0.415E-03    0.655E-03
RMM:   8    -0.116453859323E+04   -0.17821E-05   -0.18420E-06  1052   0.224E-03    0.400E-03
RMM:   9    -0.116453859373E+04   -0.49826E-06   -0.98325E-07  1023   0.174E-03
   9 F= -.11645386E+04 E0= -.11645386E+04  d E =-.204360E-02  mag=     3.0000
       N       E                     dE             d eps       ncg     rms          rms(c)
DAV:   1    -0.116453529988E+04    0.32933E-02   -0.94775E-01  1728   0.182E+00    0.326E-01
RMM:   2    -0.116453920093E+04   -0.39011E-02   -0.43171E-02  1557   0.260E-01    0.220E-01
RMM:   3    -0.116453970455E+04   -0.50362E-03   -0.64240E-03  1729   0.103E-01    0.155E-01
RMM:   4    -0.116453972751E+04   -0.22965E-04   -0.77032E-04  1738   0.398E-02    0.117E-01
RMM:   5    -0.116454005181E+04   -0.32429E-03   -0.37224E-04  1574   0.262E-02    0.703E-02
RMM:   6    -0.116454035793E+04   -0.30612E-03   -0.20577E-04  1661   0.214E-02    0.274E-02
RMM:   7    -0.116454040693E+04   -0.48998E-04   -0.36499E-05  1851   0.101E-02    0.187E-02
RMM:   8    -0.116454041208E+04   -0.51581E-05   -0.23527E-05  1541   0.582E-03    0.916E-03
RMM:   9    -0.116454041659E+04   -0.45086E-05   -0.66407E-06  1408   0.357E-03    0.588E-03
RMM:  10    -0.116454041761E+04   -0.10178E-05   -0.13932E-06  1038   0.240E-03    0.428E-03
RMM:  11    -0.116454041857E+04   -0.96048E-06   -0.13423E-06  1019   0.187E-03
  10 F= -.11645404E+04 E0= -.11645404E+04  d E =-.182484E-02  mag=     3.0000
       N       E                     dE             d eps       ncg     rms          rms(c)
DAV:   1    -0.116454040993E+04    0.76850E-05   -0.26135E-03  1824   0.955E-02    0.170E-02
RMM:   2    -0.116454041492E+04   -0.49938E-05   -0.11990E-04  1559   0.138E-02    0.116E-02
RMM:   3    -0.116454041500E+04   -0.78180E-07   -0.16545E-05  1365   0.555E-03    0.797E-03
RMM:   4    -0.116454041596E+04   -0.96731E-06   -0.25619E-06  1029   0.284E-03
  11 F= -.11645404E+04 E0= -.11645404E+04  d E =-.182224E-02  mag=     3.0000
       N       E                     dE             d eps       ncg     rms          rms(c)
DAV:   1    -0.116453589141E+04    0.45236E-02   -0.93588E-01  1664   0.179E+00    0.346E-01
RMM:   2    -0.116454040527E+04   -0.45139E-02   -0.49156E-02  1555   0.259E-01    0.229E-01
RMM:   3    -0.116454099670E+04   -0.59143E-03   -0.70854E-03  1703   0.101E-01    0.152E-01
RMM:   4    -0.116454104698E+04   -0.50281E-04   -0.79440E-04  1752   0.392E-02    0.116E-01
RMM:   5    -0.116454142998E+04   -0.38300E-03   -0.33663E-04  1563   0.255E-02    0.708E-02
RMM:   6    -0.116454182075E+04   -0.39077E-03   -0.22252E-04  1619   0.223E-02    0.255E-02
RMM:   7    -0.116454186594E+04   -0.45185E-04   -0.37174E-05  1878   0.104E-02    0.187E-02
RMM:   8    -0.116454186773E+04   -0.17957E-05   -0.22483E-05  1540   0.577E-03    0.911E-03
RMM:   9    -0.116454187448E+04   -0.67434E-05   -0.75827E-06  1452   0.371E-03    0.535E-03
RMM:  10    -0.116454187537E+04   -0.88919E-06   -0.15294E-06  1036   0.259E-03
  12 F= -.11645419E+04 E0= -.11645419E+04  d E =-.145940E-02  mag=     3.0000
       N       E                     dE             d eps       ncg     rms          rms(c)
DAV:   1    -0.116454187483E+04   -0.34824E-06   -0.24052E-04  1792   0.288E-02    0.608E-03
RMM:   2    -0.116454187474E+04    0.90717E-07   -0.12766E-05  1106   0.406E-03    0.434E-03
RMM:   3    -0.116454187478E+04   -0.41488E-07   -0.15591E-06   991   0.165E-03
  13 F= -.11645419E+04 E0= -.11645419E+04  d E =-.145881E-02  mag=     3.0000
       N       E                     dE             d eps       ncg     rms          rms(c)
DAV:   1    -0.116453709089E+04    0.47838E-02   -0.90614E-01  1664   0.175E+00    0.344E-01
RMM:   2    -0.116454150221E+04   -0.44113E-02   -0.48554E-02  1547   0.254E-01    0.228E-01
RMM:   3    -0.116454206868E+04   -0.56647E-03   -0.68478E-03  1689   0.984E-02    0.151E-01
RMM:   4    -0.116454212836E+04   -0.59682E-04   -0.79799E-04  1740   0.389E-02    0.114E-01
RMM:   5    -0.116454253824E+04   -0.40987E-03   -0.35405E-04  1559   0.261E-02    0.683E-02
RMM:   6    -0.116454291448E+04   -0.37625E-03   -0.21984E-04  1606   0.223E-02    0.250E-02
RMM:   7    -0.116454295717E+04   -0.42688E-04   -0.34817E-05  1808   0.105E-02    0.177E-02
RMM:   8    -0.116454295898E+04   -0.18068E-05   -0.25222E-05  1528   0.613E-03    0.809E-03
RMM:   9    -0.116454296238E+04   -0.33973E-05   -0.60546E-06  1360   0.342E-03    0.521E-03
RMM:  10    -0.116454296457E+04   -0.21997E-05   -0.14608E-06  1039   0.234E-03    0.353E-03
RMM:  11    -0.116454296554E+04   -0.96358E-06   -0.10730E-06  1019   0.179E-03
  14 F= -.11645430E+04 E0= -.11645430E+04  d E =-.109076E-02  mag=     3.0000
