       N       E                     dE             d eps       ncg     rms          rms(c)
DAV:   1     0.501129282442E+04    0.50113E+04   -0.17081E+05  1800   0.908E+02
DAV:   2    -0.372182460047E+02   -0.50485E+04   -0.45973E+04  2556   0.210E+02
DAV:   3    -0.118513825203E+04   -0.11479E+04   -0.11435E+04  2124   0.111E+02
DAV:   4    -0.123332160671E+04   -0.48183E+02   -0.47919E+02  2052   0.294E+01
DAV:   5    -0.123483029214E+04   -0.15087E+01   -0.15041E+01  2520   0.448E+00    0.622E+01
RMM:   6    -0.122165607182E+04    0.13174E+02   -0.76222E+00  1586   0.314E+00    0.513E+01
RMM:   7    -0.118167381787E+04    0.39982E+02   -0.64637E+01  1584   0.899E+00    0.291E+01
RMM:   8    -0.117384805668E+04    0.78258E+01   -0.13478E+01  1597   0.416E+00    0.218E+01
RMM:   9    -0.117107877083E+04    0.27693E+01   -0.26969E+01  1584   0.586E+00    0.939E+00
RMM:  10    -0.117165209727E+04   -0.57333E+00   -0.18304E+00  1604   0.165E+00    0.663E+00
RMM:  11    -0.117071132803E+04    0.94077E+00   -0.41353E+00  1584   0.221E+00    0.237E+00
RMM:  12    -0.117059970944E+04    0.11162E+00   -0.22541E-01  1590   0.502E-01    0.881E-01
RMM:  13    -0.117058296718E+04    0.16742E-01   -0.60642E-02  1609   0.268E-01    0.388E-01
RMM:  14    -0.117057972235E+04    0.32448E-02   -0.14372E-02  1730   0.121E-01    0.181E-01
RMM:  15    -0.117057950227E+04    0.22008E-03   -0.32348E-03  1715   0.604E-02    0.150E-01
RMM:  16    -0.117057998051E+04   -0.47824E-03   -0.24004E-03  1617   0.549E-02    0.102E-01
RMM:  17    -0.117058000737E+04   -0.26865E-04   -0.59221E-04  1465   0.287E-02
   1 F= -.11776665E+04 E0= -.11776665E+04  d E =-.117767E+04  mag=    -0.0007
       N       E                     dE             d eps       ncg     rms          rms(c)
DAV:   1    -0.117057226085E+04    0.77197E-02   -0.33036E+00  1800   0.268E+00    0.922E-01
RMM:   2    -0.117057965316E+04   -0.73923E-02   -0.95399E-02  1672   0.378E-01    0.853E-01
RMM:   3    -0.117057760847E+04    0.20447E-02   -0.59570E-03  1765   0.846E-02    0.750E-01
RMM:   4    -0.117057772337E+04   -0.11490E-03   -0.16353E-02  1590   0.133E-01    0.283E-01
RMM:   5    -0.117057635762E+04    0.13657E-02   -0.10985E-03  1488   0.346E-02    0.121E-01
RMM:   6    -0.117057606227E+04    0.29536E-03   -0.11878E-03  1490   0.296E-02    0.559E-02
RMM:   7    -0.117057603945E+04    0.22815E-04   -0.11210E-04  1083   0.120E-02
   2 F= -.11776628E+04 E0= -.11776628E+04  d E =0.376691E-02  mag=     0.0000
       N       E                     dE             d eps       ncg     rms          rms(c)
DAV:   1    -0.117058327513E+04   -0.72129E-02   -0.10798E+00  1728   0.153E+00    0.525E-01
RMM:   2    -0.117058523145E+04   -0.19563E-02   -0.26529E-02  1644   0.204E-01    0.490E-01
RMM:   3    -0.117058451464E+04    0.71681E-03   -0.16750E-03  1610   0.455E-02    0.418E-01
RMM:   4    -0.117058473621E+04   -0.22157E-03   -0.50775E-03  1590   0.733E-02    0.149E-01
RMM:   5    -0.117058416549E+04    0.57072E-03   -0.54511E-04  1264   0.223E-02    0.544E-02
RMM:   6    -0.117058411436E+04    0.51128E-04   -0.24630E-04  1168   0.143E-02
   3 F= -.11776707E+04 E0= -.11776707E+04  d E =-.418957E-02  mag=    -0.0000
       N       E                     dE             d eps       ncg     rms          rms(c)
DAV:   1    -0.117058472055E+04   -0.55506E-03   -0.60564E-01  1728   0.124E+00    0.312E-01
RMM:   2    -0.117058559324E+04   -0.87268E-03   -0.14557E-02  1594   0.176E-01    0.271E-01
RMM:   3    -0.117058496681E+04    0.62643E-03   -0.90646E-04  1555   0.387E-02    0.229E-01
RMM:   4    -0.117058444536E+04    0.52145E-03   -0.45159E-03  1584   0.719E-02    0.913E-02
RMM:   5    -0.117058436850E+04    0.76866E-04   -0.13340E-04  1078   0.162E-02
   4 F= -.11776712E+04 E0= -.11776712E+04  d E =-.518573E-03  mag=    -0.0000
       N       E                     dE             d eps       ncg     rms          rms(c)
DAV:   1    -0.117058550730E+04   -0.10619E-02   -0.13419E-01  1656   0.588E-01    0.140E-01
RMM:   2    -0.117058560589E+04   -0.98589E-04   -0.26181E-03  1590   0.743E-02    0.123E-01
RMM:   3    -0.117058541997E+04    0.18592E-03   -0.20722E-04  1116   0.192E-02    0.975E-02
RMM:   4    -0.117058529986E+04    0.12010E-03   -0.10546E-03  1578   0.360E-02    0.353E-02
RMM:   5    -0.117058528330E+04    0.16568E-04   -0.19747E-05   998   0.698E-03
   5 F= -.11776720E+04 E0= -.11776720E+04  d E =-.130867E-02  mag=    -0.0000
       N       E                     dE             d eps       ncg     rms          rms(c)
DAV:   1    -0.117058617372E+04   -0.87386E-03   -0.24994E-01  1728   0.794E-01    0.128E-01
RMM:   2    -0.117058646620E+04   -0.29247E-03   -0.49403E-03  1594   0.105E-01    0.117E-01
RMM:   3    -0.117058633184E+04    0.13436E-03   -0.25468E-04  1158   0.222E-02    0.104E-01
RMM:   4    -0.117058613789E+04    0.19395E-03   -0.14745E-03  1570   0.413E-02    0.396E-02
RMM:   5    -0.117058610575E+04    0.32144E-04   -0.34959E-05  1026   0.893E-03
   6 F= -.11776731E+04 E0= -.11776731E+04  d E =-.106332E-02  mag=    -0.0000
       N       E                     dE             d eps       ncg     rms          rms(c)
DAV:   1    -0.117058615441E+04   -0.16520E-04   -0.41508E-03  1728   0.104E-01    0.194E-02
RMM:   2    -0.117058615823E+04   -0.38132E-05   -0.68230E-05   998   0.131E-02
   7 F= -.11776731E+04 E0= -.11776731E+04  d E =-.108380E-02  mag=    -0.0000
       N       E                     dE             d eps       ncg     rms          rms(c)
DAV:   1    -0.117058669006E+04   -0.53565E-03   -0.13042E-01  1728   0.564E-01    0.840E-02
RMM:   2    -0.117058684876E+04   -0.15869E-03   -0.22563E-03  1590   0.700E-02    0.773E-02
RMM:   3    -0.117058682032E+04    0.28437E-04   -0.12414E-04  1060   0.159E-02
   8 F= -.11776739E+04 E0= -.11776739E+04  d E =-.760094E-03  mag=     0.0000
       N       E                     dE             d eps       ncg     rms          rms(c)
DAV:   1    -0.117058676250E+04    0.86258E-04   -0.35366E-02  1728   0.296E-01    0.633E-02
RMM:   2    -0.117058677685E+04   -0.14346E-04   -0.46835E-04  1320   0.320E-02
   9 F= -.11776739E+04 E0= -.11776739E+04  d E =-.771598E-03  mag=    -0.0000
