       N       E                     dE             d eps       ncg     rms          rms(c)
DAV:   1     0.467645965918E+04    0.46765E+04   -0.18010E+05  1888   0.949E+02
DAV:   2    -0.803288654920E+02   -0.47568E+04   -0.43451E+04  2400   0.215E+02
DAV:   3    -0.119931681633E+04   -0.11190E+04   -0.11126E+04  1952   0.112E+02
DAV:   4    -0.124763215081E+04   -0.48315E+02   -0.48024E+02  2016   0.315E+01
DAV:   5    -0.124880902448E+04   -0.11769E+01   -0.11735E+01  2304   0.466E+00    0.860E+01
RMM:   6    -0.123592441520E+04    0.12885E+02   -0.11128E+02  1641   0.158E+01    0.907E+01
RMM:   7    -0.122010166524E+04    0.15823E+02   -0.15666E+01  1542   0.680E+00    0.595E+01
RMM:   8    -0.120223655265E+04    0.17865E+02   -0.13689E+01  1567   0.530E+00    0.389E+01
RMM:   9    -0.118466273777E+04    0.17574E+02   -0.19070E+01  1563   0.569E+00    0.279E+01
RMM:  10    -0.117190997012E+04    0.12753E+02   -0.24822E+01  1598   0.652E+00    0.186E+01
RMM:  11    -0.117134018296E+04    0.56979E+00   -0.12487E+01  1559   0.518E+00    0.113E+01
RMM:  12    -0.117195340648E+04   -0.61322E+00   -0.28645E+00  1590   0.291E+00    0.720E+00
RMM:  13    -0.117160246510E+04    0.35094E+00   -0.53882E-01  1551   0.124E+00    0.471E+00
RMM:  14    -0.117136891569E+04    0.23355E+00   -0.83276E-01  1538   0.122E+00    0.290E+00
RMM:  15    -0.117132458927E+04    0.44326E-01   -0.20110E-01  1542   0.812E-01    0.836E-01
RMM:  16    -0.117133041128E+04   -0.58220E-02   -0.50593E-02  1601   0.334E-01    0.760E-01
RMM:  17    -0.117133055692E+04   -0.14564E-03   -0.76011E-03  1571   0.165E-01    0.589E-01
RMM:  18    -0.117133072163E+04   -0.16471E-03   -0.66022E-03  1563   0.112E-01    0.280E-01
RMM:  19    -0.117133115796E+04   -0.43634E-03   -0.21107E-03  1709   0.717E-02    0.200E-01
RMM:  20    -0.117133132441E+04   -0.16645E-03   -0.98429E-04  1567   0.385E-02    0.150E-01
RMM:  21    -0.117133140018E+04   -0.75768E-04   -0.19394E-04  1636   0.218E-02    0.985E-02
RMM:  22    -0.117133139947E+04    0.71610E-06   -0.91481E-05  1592   0.137E-02    0.779E-02
RMM:  23    -0.117133144190E+04   -0.42432E-04   -0.34804E-05  1641   0.896E-03    0.517E-02
RMM:  24    -0.117133145354E+04   -0.11645E-04   -0.19235E-05  1546   0.620E-03    0.303E-02
RMM:  25    -0.117133145654E+04   -0.30007E-05   -0.10708E-05  1425   0.470E-03    0.138E-02
RMM:  26    -0.117133145774E+04   -0.11991E-05   -0.27658E-06  1095   0.270E-03    0.957E-03
RMM:  27    -0.117133145568E+04    0.20639E-05   -0.31407E-06  1144   0.260E-03    0.483E-03
RMM:  28    -0.117133145522E+04    0.45773E-06   -0.70753E-07  1019   0.155E-03
   1 F= -.11784313E+04 E0= -.11784312E+04  d E =-.117843E+04  mag=    -0.9988
       N       E                     dE             d eps       ncg     rms          rms(c)
DAV:   1    -0.117132558688E+04    0.58688E-02   -0.49036E-01  1728   0.186E+00    0.214E-01
RMM:   2    -0.117132926416E+04   -0.36773E-02   -0.40162E-02  1598   0.307E-01    0.158E-01
RMM:   3    -0.117132958780E+04   -0.32364E-03   -0.55706E-03  1711   0.111E-01    0.138E-01
RMM:   4    -0.117132954284E+04    0.44960E-04   -0.98464E-04  1897   0.427E-02    0.123E-01
RMM:   5    -0.117132930592E+04    0.23692E-03   -0.70481E-04  1555   0.340E-02    0.658E-02
RMM:   6    -0.117132932348E+04   -0.17561E-04   -0.42015E-04  1572   0.278E-02    0.412E-02
RMM:   7    -0.117132930887E+04    0.14613E-04   -0.42811E-05  1576   0.132E-02    0.278E-02
RMM:   8    -0.117132930997E+04   -0.11057E-05   -0.71496E-05  1549   0.991E-03    0.135E-02
RMM:   9    -0.117132931232E+04   -0.23486E-05   -0.87547E-06  1508   0.527E-03    0.101E-02
RMM:  10    -0.117132931165E+04    0.67385E-06   -0.83835E-06  1510   0.397E-03
   2 F= -.11784298E+04 E0= -.11784297E+04  d E =0.152422E-02  mag=    -0.9988
       N       E                     dE             d eps       ncg     rms          rms(c)
DAV:   1    -0.117133046663E+04   -0.11543E-02   -0.20635E-01  1728   0.120E+00    0.139E-01
RMM:   2    -0.117133187045E+04   -0.14038E-02   -0.15626E-02  1578   0.194E-01    0.102E-01
RMM:   3    -0.117133199772E+04   -0.12727E-03   -0.22687E-03  1664   0.692E-02    0.870E-02
RMM:   4    -0.117133197324E+04    0.24486E-04   -0.35498E-04  1816   0.265E-02    0.769E-02
RMM:   5    -0.117133188471E+04    0.88530E-04   -0.26885E-04  1554   0.215E-02    0.421E-02
RMM:   6    -0.117133188934E+04   -0.46320E-05   -0.16093E-04  1579   0.175E-02    0.251E-02
RMM:   7    -0.117133188575E+04    0.35915E-05   -0.17273E-05  1548   0.827E-03    0.173E-02
RMM:   8    -0.117133188536E+04    0.39039E-06   -0.27166E-05  1536   0.622E-03    0.854E-03
RMM:   9    -0.117133188603E+04   -0.67343E-06   -0.33079E-06  1228   0.335E-03
   3 F= -.11784319E+04 E0= -.11784319E+04  d E =-.648195E-03  mag=    -0.9988
       N       E                     dE             d eps       ncg     rms          rms(c)
DAV:   1    -0.117132816762E+04    0.37177E-02   -0.34870E-01  1824   0.168E+00    0.198E-01
RMM:   2    -0.117133189572E+04   -0.37281E-02   -0.39960E-02  1592   0.270E-01    0.117E-01
RMM:   3    -0.117133218327E+04   -0.28754E-03   -0.44244E-03  1676   0.894E-02    0.970E-02
RMM:   4    -0.117133219088E+04   -0.76161E-05   -0.57144E-04  1768   0.312E-02    0.865E-02
RMM:   5    -0.117133212511E+04    0.65774E-04   -0.27868E-04  1541   0.222E-02    0.463E-02
RMM:   6    -0.117133214660E+04   -0.21488E-04   -0.18511E-04  1548   0.186E-02    0.275E-02
RMM:   7    -0.117133215142E+04   -0.48266E-05   -0.26804E-05  1631   0.948E-03    0.206E-02
RMM:   8    -0.117133215394E+04   -0.25146E-05   -0.13723E-05  1531   0.497E-03    0.133E-02
RMM:   9    -0.117133215973E+04   -0.57915E-05   -0.82493E-06  1510   0.396E-03    0.778E-03
RMM:  10    -0.117133215964E+04    0.92830E-07   -0.39349E-06  1290   0.297E-03
   4 F= -.11784327E+04 E0= -.11784326E+04  d E =-.778078E-03  mag=    -0.9988
       N       E                     dE             d eps       ncg     rms          rms(c)
DAV:   1    -0.117133217821E+04   -0.18485E-04   -0.32771E-03  1728   0.164E-01    0.193E-02
RMM:   2    -0.117133221279E+04   -0.34575E-04   -0.38127E-04  1589   0.265E-02    0.111E-02
RMM:   3    -0.117133221553E+04   -0.27463E-05   -0.40499E-05  1532   0.884E-03    0.924E-03
RMM:   4    -0.117133221610E+04   -0.56468E-06   -0.67746E-06  1105   0.324E-03
   5 F= -.11784327E+04 E0= -.11784327E+04  d E =-.785090E-03  mag=    -0.9988
       N       E                     dE             d eps       ncg     rms          rms(c)
DAV:   1    -0.117133165076E+04    0.56478E-03   -0.12988E-01  1664   0.862E-01    0.998E-02
RMM:   2    -0.117133256735E+04   -0.91659E-03   -0.99398E-03  1609   0.138E-01    0.626E-02
RMM:   3    -0.117133264926E+04   -0.81917E-04   -0.11519E-03  1673   0.466E-02    0.506E-02
RMM:   4    -0.117133265302E+04   -0.37606E-05   -0.12015E-04  1776   0.164E-02    0.440E-02
RMM:   5    -0.117133265328E+04   -0.25583E-06   -0.43569E-05  1550   0.963E-03    0.328E-02
RMM:   6    -0.117133266161E+04   -0.83281E-05   -0.53268E-05  1577   0.986E-03    0.133E-02
RMM:   7    -0.117133266713E+04   -0.55244E-05   -0.73273E-06  1455   0.465E-03    0.973E-03
RMM:   8    -0.117133266872E+04   -0.15895E-05   -0.22273E-06  1068   0.237E-03    0.623E-03
RMM:   9    -0.117133266969E+04   -0.96701E-06   -0.14876E-06  1036   0.191E-03
   6 F= -.11784334E+04 E0= -.11784333E+04  d E =-.686062E-03  mag=    -0.9988
       N       E                     dE             d eps       ncg     rms          rms(c)
DAV:   1    -0.117133189056E+04    0.77816E-03   -0.10934E-01  1664   0.792E-01    0.924E-02
RMM:   2    -0.117133265598E+04   -0.76542E-03   -0.83857E-03  1607   0.127E-01    0.588E-02
RMM:   3    -0.117133272565E+04   -0.69666E-04   -0.97809E-04  1679   0.430E-02    0.481E-02
RMM:   4    -0.117133272978E+04   -0.41293E-05   -0.99285E-05  1758   0.152E-02    0.415E-02
RMM:   5    -0.117133273213E+04   -0.23497E-05   -0.28531E-05  1548   0.805E-03    0.331E-02
RMM:   6    -0.117133274417E+04   -0.12046E-04   -0.57707E-05  1590   0.996E-03    0.123E-02
RMM:   7    -0.117133274925E+04   -0.50790E-05   -0.65466E-06  1497   0.446E-03    0.900E-03
RMM:   8    -0.117133275070E+04   -0.14525E-05   -0.21040E-06  1065   0.228E-03    0.568E-03
RMM:   9    -0.117133275148E+04   -0.77697E-06   -0.12750E-06  1020   0.178E-03
   7 F= -.11784337E+04 E0= -.11784336E+04  d E =-.981274E-03  mag=    -0.9988
       N       E                     dE             d eps       ncg     rms          rms(c)
DAV:   1    -0.117133296156E+04   -0.21085E-03   -0.15175E-01  1664   0.660E-01    0.819E-02
RMM:   2    -0.117133329454E+04   -0.33299E-03   -0.40520E-03  1593   0.101E-01    0.704E-02
RMM:   3    -0.117133332344E+04   -0.28896E-04   -0.54717E-04  1651   0.377E-02    0.599E-02
RMM:   4    -0.117133331685E+04    0.65880E-05   -0.91005E-05  1731   0.150E-02    0.524E-02
RMM:   5    -0.117133332649E+04   -0.96436E-05   -0.14544E-04  1575   0.152E-02    0.205E-02
RMM:   6    -0.117133333521E+04   -0.87143E-05   -0.30909E-05  1683   0.838E-03    0.168E-02
RMM:   7    -0.117133333345E+04    0.17547E-05   -0.46762E-06  1290   0.367E-03    0.119E-02
RMM:   8    -0.117133333389E+04   -0.43477E-06   -0.92476E-06  1416   0.347E-03
   8 F= -.11784345E+04 E0= -.11784345E+04  d E =-.829437E-03  mag=    -0.9988
       N       E                     dE             d eps       ncg     rms          rms(c)
DAV:   1    -0.117133306445E+04    0.26900E-03   -0.15755E-01  1664   0.673E-01    0.836E-02
RMM:   2    -0.117133340972E+04   -0.34527E-03   -0.41985E-03  1595   0.103E-01    0.723E-02
RMM:   3    -0.117133344129E+04   -0.31568E-04   -0.56732E-04  1653   0.384E-02    0.613E-02
RMM:   4    -0.117133343614E+04    0.51449E-05   -0.94008E-05  1725   0.152E-02    0.536E-02
RMM:   5    -0.117133345047E+04   -0.14322E-04   -0.14904E-04  1570   0.154E-02    0.210E-02
RMM:   6    -0.117133345967E+04   -0.92059E-05   -0.32030E-05  1697   0.853E-03    0.175E-02
RMM:   7    -0.117133345735E+04    0.23240E-05   -0.52118E-06  1328   0.368E-03    0.123E-02
RMM:   8    -0.117133345790E+04   -0.55391E-06   -0.10236E-05  1424   0.360E-03    0.633E-03
RMM:   9    -0.117133345818E+04   -0.27609E-06   -0.14093E-06  1023   0.203E-03
   9 F= -.11784349E+04 E0= -.11784348E+04  d E =-.120590E-02  mag=    -0.9988
       N       E                     dE             d eps       ncg     rms          rms(c)
DAV:   1    -0.117133369561E+04   -0.23771E-03   -0.13108E-01  1664   0.599E-01    0.785E-02
RMM:   2    -0.117133396344E+04   -0.26783E-03   -0.33262E-03  1591   0.903E-02    0.623E-02
RMM:   3    -0.117133397926E+04   -0.15823E-04   -0.43696E-04  1638   0.335E-02    0.535E-02
RMM:   4    -0.117133397651E+04    0.27505E-05   -0.72074E-05  1698   0.138E-02    0.438E-02
RMM:   5    -0.117133397764E+04   -0.11312E-05   -0.60010E-05  1551   0.106E-02    0.220E-02
RMM:   6    -0.117133398870E+04   -0.11057E-04   -0.30039E-05  1554   0.792E-03    0.117E-02
RMM:   7    -0.117133398877E+04   -0.72654E-07   -0.42633E-06  1193   0.385E-03
  10 F= -.11784356E+04 E0= -.11784355E+04  d E =-.679378E-03  mag=    -0.9988
       N       E                     dE             d eps       ncg     rms          rms(c)
DAV:   1    -0.117133372379E+04    0.26491E-03   -0.25985E-01  1600   0.844E-01    0.111E-01
RMM:   2    -0.117133426114E+04   -0.53734E-03   -0.65968E-03  1591   0.128E-01    0.883E-02
RMM:   3    -0.117133429772E+04   -0.36586E-04   -0.87090E-04  1643   0.477E-02    0.766E-02
RMM:   4    -0.117133429228E+04    0.54421E-05   -0.14488E-04  1739   0.195E-02    0.637E-02
RMM:   5    -0.117133429238E+04   -0.99066E-07   -0.12363E-04  1552   0.151E-02    0.303E-02
RMM:   6    -0.117133431492E+04   -0.22537E-04   -0.57024E-05  1563   0.109E-02    0.169E-02
RMM:   7    -0.117133431548E+04   -0.56896E-06   -0.81482E-06  1511   0.523E-03
  11 F= -.11784361E+04 E0= -.11784361E+04  d E =-.121661E-02  mag=    -0.9988
       N       E                     dE             d eps       ncg     rms          rms(c)
DAV:   1    -0.117133124497E+04    0.30699E-02   -0.10390E+00  1536   0.169E+00    0.220E-01
RMM:   2    -0.117133345744E+04   -0.22125E-02   -0.26213E-02  1589   0.256E-01    0.176E-01
RMM:   3    -0.117133360997E+04   -0.15253E-03   -0.34663E-03  1640   0.950E-02    0.152E-01
RMM:   4    -0.117133356647E+04    0.43499E-04   -0.56844E-04  1725   0.388E-02    0.126E-01
RMM:   5    -0.117133351090E+04    0.55567E-04   -0.48701E-04  1549   0.299E-02    0.608E-02
RMM:   6    -0.117133358432E+04   -0.73414E-04   -0.23172E-04  1561   0.220E-02    0.331E-02
RMM:   7    -0.117133358792E+04   -0.36050E-05   -0.34412E-05  1593   0.106E-02    0.240E-02
RMM:   8    -0.117133358679E+04    0.11282E-05   -0.34662E-05  1533   0.735E-03    0.135E-02
RMM:   9    -0.117133358983E+04   -0.30375E-05   -0.68379E-06  1428   0.451E-03    0.782E-03
RMM:  10    -0.117133358982E+04    0.85674E-08   -0.66492E-06  1372   0.325E-03
  12 F= -.11784358E+04 E0= -.11784358E+04  d E =-.915465E-03  mag=    -0.9988
       N       E                     dE             d eps       ncg     rms          rms(c)
DAV:   1    -0.117133316405E+04    0.42578E-03   -0.49739E-01  1536   0.117E+00    0.154E-01
RMM:   2    -0.117133421514E+04   -0.10511E-02   -0.12680E-02  1591   0.177E-01    0.121E-01
RMM:   3    -0.117133428485E+04   -0.69714E-04   -0.16855E-03  1641   0.660E-02    0.105E-01
RMM:   4    -0.117133426761E+04    0.17241E-04   -0.27332E-04  1746   0.268E-02    0.878E-02
RMM:   5    -0.117133424504E+04    0.22575E-04   -0.25749E-04  1552   0.213E-02    0.403E-02
RMM:   6    -0.117133428306E+04   -0.38026E-04   -0.10836E-04  1560   0.149E-02    0.225E-02
RMM:   7    -0.117133428322E+04   -0.15390E-06   -0.16221E-05  1547   0.726E-03    0.152E-02
RMM:   8    -0.117133428381E+04   -0.59513E-06   -0.12925E-05  1494   0.472E-03    0.926E-03
RMM:   9    -0.117133428531E+04   -0.14987E-05   -0.37902E-06  1224   0.308E-03    0.521E-03
RMM:  10    -0.117133428543E+04   -0.11690E-06   -0.24828E-06  1122   0.225E-03
  13 F= -.11784362E+04 E0= -.11784362E+04  d E =-.131633E-02  mag=    -0.9988
       N       E                     dE             d eps       ncg     rms          rms(c)
DAV:   1    -0.117133441733E+04   -0.13201E-03   -0.64341E-02  1664   0.446E-01    0.579E-02
RMM:   2    -0.117133458981E+04   -0.17249E-03   -0.20690E-03  1610   0.691E-02    0.439E-02
RMM:   3    -0.117133460263E+04   -0.12816E-04   -0.26085E-04  1650   0.252E-02    0.390E-02
RMM:   4    -0.117133460260E+04    0.26364E-07   -0.39384E-05  1727   0.992E-03    0.329E-02
RMM:   5    -0.117133460434E+04   -0.17330E-05   -0.37108E-05  1556   0.801E-03    0.132E-02
RMM:   6    -0.117133460955E+04   -0.52154E-05   -0.12589E-05  1535   0.506E-03    0.781E-03
RMM:   7    -0.117133461008E+04   -0.53122E-06   -0.18198E-06  1066   0.251E-03
  14 F= -.11784367E+04 E0= -.11784366E+04  d E =-.431298E-03  mag=    -0.9988
       N       E                     dE             d eps       ncg     rms          rms(c)
DAV:   1    -0.117133349448E+04    0.11151E-02   -0.58048E-01  1536   0.134E+00    0.174E-01
RMM:   2    -0.117133509952E+04   -0.16050E-02   -0.18619E-02  1610   0.208E-01    0.132E-01
RMM:   3    -0.117133522134E+04   -0.12182E-03   -0.23517E-03  1649   0.756E-02    0.117E-01
RMM:   4    -0.117133521194E+04    0.93962E-05   -0.35523E-04  1775   0.297E-02    0.990E-02
RMM:   5    -0.117133519596E+04    0.15983E-04   -0.32814E-04  1551   0.236E-02    0.402E-02
RMM:   6    -0.117133524222E+04   -0.46260E-04   -0.11358E-04  1559   0.152E-02    0.238E-02
RMM:   7    -0.117133524713E+04   -0.49098E-05   -0.16559E-05  1543   0.738E-03    0.155E-02
RMM:   8    -0.117133524600E+04    0.11300E-05   -0.17473E-05  1494   0.528E-03    0.908E-03
RMM:   9    -0.117133524875E+04   -0.27484E-05   -0.40908E-06  1215   0.312E-03    0.497E-03
RMM:  10    -0.117133524893E+04   -0.18412E-06   -0.24684E-06  1131   0.223E-03
  15 F= -.11784376E+04 E0= -.11784375E+04  d E =-.139172E-02  mag=    -0.9988
       N       E                     dE             d eps       ncg     rms          rms(c)
DAV:   1    -0.117132788401E+04    0.73647E-02   -0.23205E+00  1536   0.268E+00    0.347E-01
RMM:   2    -0.117133442638E+04   -0.65424E-02   -0.74187E-02  1608   0.416E-01    0.263E-01
RMM:   3    -0.117133490815E+04   -0.48177E-03   -0.93890E-03  1649   0.151E-01    0.232E-01
RMM:   4    -0.117133483555E+04    0.72607E-04   -0.14113E-03  1770   0.589E-02    0.196E-01
RMM:   5    -0.117133465754E+04    0.17800E-03   -0.12814E-03  1551   0.465E-02    0.809E-02
RMM:   6    -0.117133479547E+04   -0.13793E-03   -0.46280E-04  1560   0.302E-02    0.470E-02
RMM:   7    -0.117133480636E+04   -0.10889E-04   -0.65738E-05  1581   0.145E-02    0.323E-02
RMM:   8    -0.117133479849E+04    0.78645E-05   -0.81867E-05  1541   0.111E-02    0.176E-02
RMM:   9    -0.117133481229E+04   -0.13796E-04   -0.13511E-05  1533   0.617E-03    0.996E-03
RMM:  10    -0.117133481295E+04   -0.66295E-06   -0.12742E-05  1443   0.437E-03    0.575E-03
RMM:  11    -0.117133481227E+04    0.67915E-06   -0.19643E-06  1090   0.235E-03
  16 F= -.11784378E+04 E0= -.11784378E+04  d E =-.160533E-02  mag=    -0.9988
       N       E                     dE             d eps       ncg     rms          rms(c)
DAV:   1    -0.117133396725E+04    0.84570E-03   -0.43762E-01  1536   0.116E+00    0.152E-01
RMM:   2    -0.117133517713E+04   -0.12099E-02   -0.14153E-02  1609   0.181E-01    0.115E-01
RMM:   3    -0.117133527106E+04   -0.93927E-04   -0.18023E-03  1650   0.662E-02    0.103E-01
RMM:   4    -0.117133526349E+04    0.75632E-05   -0.27134E-04  1770   0.260E-02    0.865E-02
RMM:   5    -0.117133525117E+04    0.12325E-04   -0.27245E-04  1554   0.212E-02    0.345E-02
RMM:   6    -0.117133528658E+04   -0.35413E-04   -0.86860E-05  1563   0.132E-02    0.208E-02
RMM:   7    -0.117133529050E+04   -0.39172E-05   -0.14195E-05  1525   0.661E-03    0.129E-02
RMM:   8    -0.117133529106E+04   -0.55620E-06   -0.10489E-05  1426   0.428E-03    0.833E-03
RMM:   9    -0.117133529289E+04   -0.18347E-05   -0.38322E-06  1225   0.277E-03    0.442E-03
RMM:  10    -0.117133529318E+04   -0.28582E-06   -0.15842E-06  1079   0.189E-03
  17 F= -.11784380E+04 E0= -.11784380E+04  d E =-.180242E-02  mag=    -0.9988
       N       E                     dE             d eps       ncg     rms          rms(c)
DAV:   1    -0.117133470541E+04    0.58748E-03   -0.27883E-01  1536   0.105E+00    0.134E-01
RMM:   2    -0.117133588774E+04   -0.11823E-02   -0.13298E-02  1626   0.168E-01    0.979E-02
RMM:   3    -0.117133598610E+04   -0.98359E-04   -0.15846E-03  1663   0.589E-02    0.857E-02
RMM:   4    -0.117133598912E+04   -0.30224E-05   -0.19467E-04  1788   0.217E-02    0.756E-02
RMM:   5    -0.117133599488E+04   -0.57637E-05   -0.21190E-04  1571   0.184E-02    0.278E-02
RMM:   6    -0.117133601954E+04   -0.24655E-04   -0.51296E-05  1571   0.103E-02    0.190E-02
RMM:   7    -0.117133602457E+04   -0.50358E-05   -0.10774E-05  1464   0.538E-03    0.104E-02
RMM:   8    -0.117133602591E+04   -0.13368E-05   -0.66864E-06  1365   0.351E-03    0.661E-03
RMM:   9    -0.117133602733E+04   -0.14151E-05   -0.21080E-06  1104   0.216E-03    0.375E-03
RMM:  10    -0.117133602748E+04   -0.15414E-06   -0.13496E-06  1050   0.177E-03
  18 F= -.11784390E+04 E0= -.11784390E+04  d E =-.100526E-02  mag=    -0.9988
       N       E                     dE             d eps       ncg     rms          rms(c)
DAV:   1    -0.117133327701E+04    0.27503E-02   -0.67722E-01  1536   0.164E+00    0.209E-01
RMM:   2    -0.117133618266E+04   -0.29057E-02   -0.32292E-02  1626   0.262E-01    0.152E-01
RMM:   3    -0.117133642298E+04   -0.24032E-03   -0.38504E-03  1659   0.915E-02    0.133E-01
RMM:   4    -0.117133642324E+04   -0.25967E-06   -0.47526E-04  1782   0.336E-02    0.117E-01
RMM:   5    -0.117133641188E+04    0.11363E-04   -0.51165E-04  1567   0.285E-02    0.439E-02
RMM:   6    -0.117133646564E+04   -0.53760E-04   -0.12927E-04  1578   0.161E-02    0.298E-02
RMM:   7    -0.117133647348E+04   -0.78411E-05   -0.26664E-05  1528   0.840E-03    0.161E-02
RMM:   8    -0.117133647659E+04   -0.31095E-05   -0.17054E-05  1501   0.561E-03    0.100E-02
RMM:   9    -0.117133648062E+04   -0.40313E-05   -0.52221E-06  1302   0.343E-03    0.565E-03
RMM:  10    -0.117133648087E+04   -0.25040E-06   -0.30268E-06  1179   0.241E-03
  19 F= -.11784399E+04 E0= -.11784398E+04  d E =-.188355E-02  mag=    -0.9987
       N       E                     dE             d eps       ncg     rms          rms(c)
DAV:   1    -0.117132211064E+04    0.14370E-01   -0.27078E+00  1536   0.327E+00    0.420E-01
RMM:   2    -0.117133394101E+04   -0.11830E-01   -0.12927E-01  1624   0.523E-01    0.303E-01
RMM:   3    -0.117133491414E+04   -0.97313E-03   -0.15446E-02  1650   0.183E-01    0.264E-01
RMM:   4    -0.117133489049E+04    0.23651E-04   -0.18963E-03  1777   0.667E-02    0.234E-01
RMM:   5    -0.117133472546E+04    0.16502E-03   -0.18537E-03  1567   0.546E-02    0.922E-02
RMM:   6    -0.117133490102E+04   -0.17555E-03   -0.54006E-04  1567   0.323E-02    0.588E-02
RMM:   7    -0.117133491177E+04   -0.10760E-04   -0.98181E-05  1547   0.167E-02    0.323E-02
RMM:   8    -0.117133491186E+04   -0.86035E-07   -0.83047E-05  1541   0.117E-02    0.191E-02
RMM:   9    -0.117133493178E+04   -0.19916E-04   -0.17586E-05  1601   0.670E-03    0.115E-02
RMM:  10    -0.117133493246E+04   -0.68388E-06   -0.13965E-05  1456   0.457E-03    0.676E-03
RMM:  11    -0.117133493269E+04   -0.22450E-06   -0.28658E-06  1134   0.270E-03
  20 F= -.11784392E+04 E0= -.11784391E+04  d E =-.119466E-02  mag=    -0.9986
       N       E                     dE             d eps       ncg     rms          rms(c)
DAV:   1    -0.117132950114E+04    0.54313E-02   -0.14431E+00  1536   0.239E+00    0.307E-01
RMM:   2    -0.117133579653E+04   -0.62954E-02   -0.69363E-02  1625   0.383E-01    0.229E-01
RMM:   3    -0.117133633817E+04   -0.54164E-03   -0.83354E-03  1669   0.136E-01    0.199E-01
RMM:   4    -0.117133632701E+04    0.11161E-04   -0.10233E-03  1780   0.502E-02    0.175E-01
RMM:   5    -0.117133626545E+04    0.61565E-04   -0.12296E-03  1573   0.438E-02    0.641E-02
RMM:   6    -0.117133635690E+04   -0.91449E-04   -0.27029E-04  1591   0.236E-02    0.456E-02
RMM:   7    -0.117133636510E+04   -0.82028E-05   -0.54832E-05  1535   0.121E-02    0.266E-02
RMM:   8    -0.117133637475E+04   -0.96533E-05   -0.32421E-05  1535   0.778E-03    0.175E-02
RMM:   9    -0.117133637999E+04   -0.52351E-05   -0.17137E-05  1507   0.554E-03    0.879E-03
RMM:  10    -0.117133638122E+04   -0.12348E-05   -0.88219E-06  1403   0.403E-03    0.609E-03
RMM:  11    -0.117133638128E+04   -0.57040E-07   -0.24635E-06  1111   0.258E-03
  21 F= -.11784400E+04 E0= -.11784400E+04  d E =-.201416E-02  mag=    -0.9987
       N       E                     dE             d eps       ncg     rms          rms(c)
DAV:   1    -0.117133543967E+04    0.94156E-03   -0.42028E-01  1536   0.127E+00    0.168E-01
RMM:   2    -0.117133713549E+04   -0.16958E-02   -0.19164E-02  1627   0.202E-01    0.127E-01
RMM:   3    -0.117133727874E+04   -0.14325E-03   -0.22961E-03  1654   0.704E-02    0.109E-01
RMM:   4    -0.117133727989E+04   -0.11536E-05   -0.30176E-04  1774   0.265E-02    0.949E-02
RMM:   5    -0.117133727710E+04    0.27918E-05   -0.33266E-04  1569   0.228E-02    0.346E-02
RMM:   6    -0.117133730948E+04   -0.32381E-04   -0.77428E-05  1577   0.127E-02    0.250E-02
RMM:   7    -0.117133731541E+04   -0.59241E-05   -0.15029E-05  1513   0.661E-03    0.139E-02
RMM:   8    -0.117133731666E+04   -0.12531E-05   -0.13118E-05  1452   0.463E-03    0.847E-03
RMM:   9    -0.117133731971E+04   -0.30514E-05   -0.25660E-06  1121   0.262E-03    0.519E-03
RMM:  10    -0.117133731991E+04   -0.19776E-06   -0.22591E-06  1098   0.216E-03
  22 F= -.11784413E+04 E0= -.11784412E+04  d E =-.122079E-02  mag=    -0.9986
       N       E                     dE             d eps       ncg     rms          rms(c)
DAV:   1    -0.117133333493E+04    0.39848E-02   -0.10333E+00  1536   0.199E+00    0.264E-01
RMM:   2    -0.117133755334E+04   -0.42184E-02   -0.47106E-02  1628   0.317E-01    0.199E-01
RMM:   3    -0.117133791083E+04   -0.35749E-03   -0.56551E-03  1657   0.110E-01    0.170E-01
RMM:   4    -0.117133790253E+04    0.82980E-05   -0.73722E-04  1770   0.415E-02    0.149E-01
RMM:   5    -0.117133786935E+04    0.33180E-04   -0.83876E-04  1568   0.361E-02    0.541E-02
RMM:   6    -0.117133794095E+04   -0.71604E-04   -0.19311E-04  1585   0.200E-02    0.395E-02
RMM:   7    -0.117133794669E+04   -0.57380E-05   -0.37695E-05  1534   0.104E-02    0.218E-02
RMM:   8    -0.117133794748E+04   -0.79407E-06   -0.33776E-05  1522   0.730E-03    0.131E-02
RMM:   9    -0.117133795597E+04   -0.84853E-05   -0.62260E-06  1320   0.411E-03    0.807E-03
RMM:  10    -0.117133795650E+04   -0.52807E-06   -0.52891E-06  1292   0.298E-03
  23 F= -.11784424E+04 E0= -.11784423E+04  d E =-.230332E-02  mag=    -0.9985
       N       E                     dE             d eps       ncg     rms          rms(c)
DAV:   1    -0.117133674887E+04    0.12071E-02   -0.25069E-01  1536   0.980E-01    0.131E-01
RMM:   2    -0.117133774842E+04   -0.99955E-03   -0.11443E-02  1625   0.156E-01    0.987E-02
RMM:   3    -0.117133783178E+04   -0.83355E-04   -0.13755E-03  1659   0.544E-02    0.840E-02
RMM:   4    -0.117133783359E+04   -0.18166E-05   -0.17940E-04  1765   0.205E-02    0.733E-02
RMM:   5    -0.117133784044E+04   -0.68479E-05   -0.21746E-04  1564   0.183E-02    0.266E-02
RMM:   6    -0.117133786227E+04   -0.21829E-04   -0.48290E-05  1581   0.999E-03    0.199E-02
RMM:   7    -0.117133786589E+04   -0.36217E-05   -0.96443E-06  1446   0.516E-03    0.111E-02
RMM:   8    -0.117133786704E+04   -0.11508E-05   -0.80410E-06  1383   0.361E-03    0.673E-03
RMM:   9    -0.117133786917E+04   -0.21284E-05   -0.15562E-06  1062   0.209E-03    0.405E-03
RMM:  10    -0.117133786935E+04   -0.17894E-06   -0.14136E-06  1047   0.180E-03
  24 F= -.11784425E+04 E0= -.11784424E+04  d E =-.243712E-02  mag=    -0.9985
       N       E                     dE             d eps       ncg     rms          rms(c)
DAV:   1    -0.117133742655E+04    0.44262E-03   -0.69298E-01  1536   0.138E+00    0.192E-01
RMM:   2    -0.117133885135E+04   -0.14248E-02   -0.17189E-02  1596   0.205E-01    0.153E-01
RMM:   3    -0.117133894590E+04   -0.94553E-04   -0.23193E-03  1644   0.765E-02    0.132E-01
RMM:   4    -0.117133891632E+04    0.29585E-04   -0.37277E-04  1700   0.317E-02    0.107E-01
RMM:   5    -0.117133893139E+04   -0.15075E-04   -0.58972E-04  1575   0.301E-02    0.351E-02
RMM:   6    -0.117133896131E+04   -0.29916E-04   -0.80091E-05  1682   0.142E-02    0.294E-02
RMM:   7    -0.117133895580E+04    0.55123E-05   -0.27363E-05  1525   0.756E-03    0.159E-02
RMM:   8    -0.117133895987E+04   -0.40737E-05   -0.15490E-05  1511   0.521E-03    0.862E-03
RMM:   9    -0.117133896140E+04   -0.15345E-05   -0.42887E-06  1217   0.316E-03    0.518E-03
RMM:  10    -0.117133896156E+04   -0.15661E-06   -0.17689E-06  1063   0.209E-03
  25 F= -.11784439E+04 E0= -.11784438E+04  d E =-.143434E-02  mag=    -0.9984
       N       E                     dE             d eps       ncg     rms          rms(c)
DAV:   1    -0.117133821069E+04    0.75071E-03   -0.48229E-01  1536   0.115E+00    0.160E-01
RMM:   2    -0.117133919399E+04   -0.98330E-03   -0.11973E-02  1596   0.171E-01    0.128E-01
RMM:   3    -0.117133925876E+04   -0.64762E-04   -0.16087E-03  1645   0.640E-02    0.111E-01
RMM:   4    -0.117133924010E+04    0.18656E-04   -0.26939E-04  1700   0.267E-02    0.901E-02
RMM:   5    -0.117133925628E+04   -0.16183E-04   -0.42665E-04  1574   0.255E-02    0.292E-02
RMM:   6    -0.117133927847E+04   -0.22190E-04   -0.57100E-05  1677   0.120E-02    0.246E-02
RMM:   7    -0.117133927455E+04    0.39209E-05   -0.20051E-05  1507   0.641E-03    0.133E-02
RMM:   8    -0.117133927769E+04   -0.31404E-05   -0.10605E-05  1476   0.436E-03    0.721E-03
RMM:   9    -0.117133927884E+04   -0.11486E-05   -0.30092E-06  1149   0.265E-03    0.432E-03
RMM:  10    -0.117133927896E+04   -0.12012E-06   -0.12537E-06  1050   0.186E-03
  26 F= -.11784445E+04 E0= -.11784444E+04  d E =-.203755E-02  mag=    -0.9984
       N       E                     dE             d eps       ncg     rms          rms(c)
DAV:   1    -0.117133400620E+04    0.52726E-02   -0.19278E+00  1536   0.230E+00    0.320E-01
RMM:   2    -0.117133805383E+04   -0.40476E-02   -0.47797E-02  1596   0.343E-01    0.256E-01
RMM:   3    -0.117133832813E+04   -0.27430E-03   -0.64431E-03  1643   0.128E-01    0.221E-01
RMM:   4    -0.117133822137E+04    0.10676E-03   -0.10555E-03  1705   0.531E-02    0.180E-01
RMM:   5    -0.117133820331E+04    0.18064E-04   -0.16118E-03  1572   0.500E-02    0.590E-02
RMM:   6    -0.117133827539E+04   -0.72082E-04   -0.23295E-04  1691   0.240E-02    0.496E-02
RMM:   7    -0.117133825568E+04    0.19707E-04   -0.73398E-05  1544   0.124E-02    0.269E-02
RMM:   8    -0.117133826521E+04   -0.95310E-05   -0.45872E-05  1543   0.873E-03    0.144E-02
RMM:   9    -0.117133826925E+04   -0.40418E-05   -0.11785E-05  1555   0.515E-03    0.875E-03
RMM:  10    -0.117133826963E+04   -0.37405E-06   -0.47707E-06  1220   0.293E-03
  27 F= -.11784441E+04 E0= -.11784440E+04  d E =-.159905E-02  mag=    -0.9983
       N       E                     dE             d eps       ncg     rms          rms(c)
DAV:   1    -0.117133695461E+04    0.13146E-02   -0.10122E+00  1536   0.167E+00    0.233E-01
RMM:   2    -0.117133907438E+04   -0.21198E-02   -0.25314E-02  1597   0.249E-01    0.188E-01
RMM:   3    -0.117133924510E+04   -0.17072E-03   -0.35351E-03  1646   0.940E-02    0.164E-01
RMM:   4    -0.117133919645E+04    0.48644E-04   -0.55585E-04  1722   0.387E-02    0.135E-01
RMM:   5    -0.117133918494E+04    0.11511E-04   -0.86655E-04  1575   0.365E-02    0.442E-02
RMM:   6    -0.117133923099E+04   -0.46045E-04   -0.13286E-04  1666   0.178E-02    0.362E-02
RMM:   7    -0.117133921925E+04    0.11739E-04   -0.42136E-05  1532   0.957E-03    0.201E-02
RMM:   8    -0.117133922555E+04   -0.63067E-05   -0.22122E-05  1531   0.628E-03    0.113E-02
RMM:   9    -0.117133922789E+04   -0.23398E-05   -0.69949E-06  1346   0.382E-03    0.670E-03
RMM:  10    -0.117133922825E+04   -0.35351E-06   -0.31697E-06  1166   0.259E-03
  28 F= -.11784446E+04 E0= -.11784445E+04  d E =-.214368E-02  mag=    -0.9983
       N       E                     dE             d eps       ncg     rms          rms(c)
DAV:   1    -0.117133795293E+04    0.12750E-02   -0.98290E-01  1536   0.165E+00    0.218E-01
RMM:   2    -0.117134013805E+04   -0.21851E-02   -0.25739E-02  1612   0.254E-01    0.172E-01
RMM:   3    -0.117134031991E+04   -0.18187E-03   -0.34265E-03  1646   0.929E-02    0.147E-01
RMM:   4    -0.117134028785E+04    0.32060E-04   -0.53659E-04  1656   0.379E-02    0.113E-01
RMM:   5    -0.117134032795E+04   -0.40097E-04   -0.58166E-04  1563   0.316E-02    0.501E-02
RMM:   6    -0.117134037091E+04   -0.42963E-04   -0.12509E-04  1699   0.177E-02    0.326E-02
RMM:   7    -0.117134036224E+04    0.86707E-05   -0.36208E-05  1536   0.855E-03    0.203E-02
RMM:   8    -0.117134036594E+04   -0.36987E-05   -0.29917E-05  1530   0.656E-03    0.105E-02
RMM:   9    -0.117134036969E+04   -0.37440E-05   -0.45809E-06  1229   0.353E-03    0.714E-03
RMM:  10    -0.117134037012E+04   -0.42996E-06   -0.33379E-06  1182   0.249E-03
  29 F= -.11784462E+04 E0= -.11784461E+04  d E =-.156304E-02  mag=    -0.9983
       N       E                     dE             d eps       ncg     rms          rms(c)
DAV:   1    -0.117133914000E+04    0.12297E-02   -0.51408E-01  1536   0.119E+00    0.158E-01
RMM:   2    -0.117134025914E+04   -0.11191E-02   -0.13463E-02  1611   0.183E-01    0.125E-01
RMM:   3    -0.117134035153E+04   -0.92389E-04   -0.17970E-03  1643   0.672E-02    0.107E-01
RMM:   4    -0.117134034163E+04    0.98990E-05   -0.28489E-04  1657   0.276E-02    0.825E-02
RMM:   5    -0.117134037382E+04   -0.32184E-04   -0.32131E-04  1563   0.232E-02    0.358E-02
RMM:   6    -0.117134040031E+04   -0.26495E-04   -0.68026E-05  1695   0.129E-02    0.241E-02
RMM:   7    -0.117134039540E+04    0.49138E-05   -0.20969E-05  1501   0.642E-03    0.148E-02
RMM:   8    -0.117134039828E+04   -0.28873E-05   -0.15765E-05  1493   0.484E-03    0.757E-03
RMM:   9    -0.117134040043E+04   -0.21496E-05   -0.23654E-06  1091   0.266E-03    0.506E-03
RMM:  10    -0.117134040066E+04   -0.23001E-06   -0.17557E-06  1059   0.200E-03
  30 F= -.11784465E+04 E0= -.11784464E+04  d E =-.189587E-02  mag=    -0.9983
       N       E                     dE             d eps       ncg     rms          rms(c)
DAV:   1    -0.117133921109E+04    0.11893E-02   -0.11572E+00  1536   0.166E+00    0.235E-01
RMM:   2    -0.117134122296E+04   -0.20119E-02   -0.24751E-02  1587   0.249E-01    0.190E-01
RMM:   3    -0.117134137899E+04   -0.15602E-03   -0.34045E-03  1636   0.945E-02    0.164E-01
RMM:   4    -0.117134134228E+04    0.36706E-04   -0.62166E-04  1705   0.400E-02    0.131E-01
RMM:   5    -0.117134137973E+04   -0.37452E-04   -0.80470E-04  1561   0.358E-02    0.516E-02
RMM:   6    -0.117134142286E+04   -0.43131E-04   -0.13747E-04  1682   0.189E-02    0.350E-02
RMM:   7    -0.117134141495E+04    0.79170E-05   -0.40381E-05  1541   0.890E-03    0.208E-02
RMM:   8    -0.117134141846E+04   -0.35102E-05   -0.32292E-05  1520   0.694E-03    0.117E-02
RMM:   9    -0.117134141971E+04   -0.12537E-05   -0.70457E-06  1354   0.438E-03    0.679E-03
RMM:  10    -0.117134142067E+04   -0.95550E-06   -0.47155E-06  1261   0.277E-03
  31 F= -.11784479E+04 E0= -.11784478E+04  d E =-.140770E-02  mag=    -0.9982
       N       E                     dE             d eps       ncg     rms          rms(c)
DAV:   1    -0.117134105874E+04    0.36097E-03   -0.17578E-01  1536   0.649E-01    0.917E-02
RMM:   2    -0.117134134424E+04   -0.28549E-03   -0.37670E-03  1588   0.970E-02    0.742E-02
RMM:   3    -0.117134136672E+04   -0.22478E-04   -0.51660E-04  1639   0.366E-02    0.639E-02
RMM:   4    -0.117134136802E+04   -0.13053E-05   -0.94523E-05  1697   0.155E-02    0.511E-02
RMM:   5    -0.117134138661E+04   -0.18586E-04   -0.12727E-04  1559   0.142E-02    0.201E-02
RMM:   6    -0.117134139534E+04   -0.87310E-05   -0.21887E-05  1666   0.747E-03    0.139E-02
RMM:   7    -0.117134139450E+04    0.83696E-06   -0.68966E-06  1385   0.363E-03
  32 F= -.11784481E+04 E0= -.11784479E+04  d E =-.153114E-02  mag=    -0.9982
       N       E                     dE             d eps       ncg     rms          rms(c)
DAV:   1    -0.117134103691E+04    0.35843E-03   -0.10069E+00  1536   0.147E+00    0.227E-01
RMM:   2    -0.117134230927E+04   -0.12724E-02   -0.16749E-02  1569   0.208E-01    0.190E-01
RMM:   3    -0.117134244277E+04   -0.13350E-03   -0.27402E-03  1663   0.854E-02    0.167E-01
RMM:   4    -0.117134238047E+04    0.62300E-04   -0.54323E-04  1644   0.379E-02    0.126E-01
RMM:   5    -0.117134240488E+04   -0.24411E-04   -0.80659E-04  1563   0.367E-02    0.456E-02
RMM:   6    -0.117134244041E+04   -0.35536E-04   -0.10259E-04  1646   0.182E-02    0.339E-02
RMM:   7    -0.117134244544E+04   -0.50310E-05   -0.35629E-05  1552   0.876E-03    0.186E-02
RMM:   8    -0.117134244366E+04    0.17843E-05   -0.22723E-05  1492   0.621E-03    0.110E-02
RMM:   9    -0.117134244502E+04   -0.13549E-05   -0.92658E-06  1448   0.440E-03    0.628E-03
RMM:  10    -0.117134244552E+04   -0.50767E-06   -0.41418E-06  1241   0.290E-03
  33 F= -.11784495E+04 E0= -.11784494E+04  d E =-.145848E-02  mag=    -0.9981
       N       E                     dE             d eps       ncg     rms          rms(c)
DAV:   1    -0.117134216809E+04    0.27692E-03   -0.22349E-01  1536   0.695E-01    0.107E-01
RMM:   2    -0.117134243412E+04   -0.26603E-03   -0.37132E-03  1569   0.975E-02    0.893E-02
RMM:   3    -0.117134246031E+04   -0.26188E-04   -0.60750E-04  1660   0.400E-02    0.785E-02
RMM:   4    -0.117134245197E+04    0.83427E-05   -0.12011E-04  1643   0.178E-02    0.594E-02
RMM:   5    -0.117134246540E+04   -0.13432E-04   -0.19212E-04  1564   0.177E-02    0.210E-02
RMM:   6    -0.117134247542E+04   -0.10023E-04   -0.22853E-05  1620   0.861E-03    0.162E-02
RMM:   7    -0.117134247647E+04   -0.10461E-05   -0.80773E-06  1431   0.419E-03    0.873E-03
RMM:   8    -0.117134247619E+04    0.27869E-06   -0.51551E-06  1322   0.297E-03
  34 F= -.11784497E+04 E0= -.11784496E+04  d E =-.167759E-02  mag=    -0.9981
       N       E                     dE             d eps       ncg     rms          rms(c)
DAV:   1    -0.117134122663E+04    0.12498E-02   -0.81908E-01  1536   0.155E+00    0.221E-01
RMM:   2    -0.117134305131E+04   -0.18247E-02   -0.21734E-02  1602   0.242E-01    0.182E-01
RMM:   3    -0.117134323240E+04   -0.18109E-03   -0.31216E-03  1681   0.928E-02    0.160E-01
RMM:   4    -0.117134320027E+04    0.32125E-04   -0.58414E-04  1736   0.383E-02    0.131E-01
RMM:   5    -0.117134316017E+04    0.40107E-04   -0.64940E-04  1553   0.340E-02    0.510E-02
RMM:   6    -0.117134321769E+04   -0.57520E-04   -0.15844E-04  1665   0.190E-02    0.383E-02
RMM:   7    -0.117134322784E+04   -0.10155E-04   -0.32972E-05  1542   0.938E-03    0.197E-02
RMM:   8    -0.117134322672E+04    0.11232E-05   -0.24654E-05  1509   0.653E-03    0.116E-02
RMM:   9    -0.117134323284E+04   -0.61176E-05   -0.48490E-06  1247   0.356E-03    0.748E-03
RMM:  10    -0.117134323257E+04    0.26717E-06   -0.59511E-06  1362   0.328E-03
  35 F= -.11784508E+04 E0= -.11784507E+04  d E =-.110207E-02  mag=    -0.9979
