       N       E                     dE             d eps       ncg     rms          rms(c)
DAV:   1     0.493565242454E+04    0.49357E+04   -0.17225E+05  1872   0.915E+02
DAV:   2    -0.429307705900E+02   -0.49786E+04   -0.45486E+04  2520   0.210E+02
DAV:   3    -0.119698838676E+04   -0.11541E+04   -0.11478E+04  2124   0.112E+02
DAV:   4    -0.124364470873E+04   -0.46656E+02   -0.46416E+02  2016   0.302E+01
DAV:   5    -0.124496673606E+04   -0.13220E+01   -0.13183E+01  2304   0.467E+00    0.706E+01
RMM:   6    -0.122857647904E+04    0.16390E+02   -0.34316E+01  1606   0.607E+00    0.643E+01
RMM:   7    -0.121515667377E+04    0.13420E+02   -0.50450E+00  1587   0.283E+00    0.487E+01
RMM:   8    -0.119167472264E+04    0.23482E+02   -0.24518E+01  1584   0.584E+00    0.321E+01
RMM:   9    -0.117672207315E+04    0.14953E+02   -0.25364E+01  1589   0.602E+00    0.218E+01
RMM:  10    -0.117726474198E+04   -0.54267E+00   -0.27044E+01  1584   0.611E+00    0.116E+01
RMM:  11    -0.117600754334E+04    0.12572E+01   -0.14511E+00  1624   0.221E+00    0.705E+00
RMM:  12    -0.117578076407E+04    0.22678E+00   -0.42701E-01  1599   0.652E-01    0.553E+00
RMM:  13    -0.117533238639E+04    0.44838E+00   -0.13417E+00  1584   0.133E+00    0.172E+00
RMM:  14    -0.117527643379E+04    0.55953E-01   -0.12755E-01  1593   0.556E-01    0.137E+00
RMM:  15    -0.117527035089E+04    0.60829E-02   -0.25925E-02  1666   0.175E-01    0.101E+00
RMM:  16    -0.117526898759E+04    0.13633E-02   -0.64941E-03  1625   0.110E-01    0.778E-01
RMM:  17    -0.117526859833E+04    0.38926E-03   -0.51301E-03  1596   0.859E-02    0.466E-01
RMM:  18    -0.117526875682E+04   -0.15849E-03   -0.13031E-03  1396   0.521E-02    0.291E-01
RMM:  19    -0.117526865645E+04    0.10036E-03   -0.59364E-04  1305   0.282E-02    0.158E-01
RMM:  20    -0.117526865662E+04   -0.16986E-06   -0.31684E-04  1180   0.234E-02
   1 F= -.11825995E+04 E0= -.11825995E+04  d E =-.118260E+04  mag=    -0.0012
       N       E                     dE             d eps       ncg     rms          rms(c)
DAV:   1    -0.117526907575E+04   -0.41929E-03   -0.25953E-01  1692   0.797E-01    0.195E-01
RMM:   2    -0.117526923287E+04   -0.15712E-03   -0.69863E-03  1614   0.122E-01    0.204E-01
RMM:   3    -0.117526914192E+04    0.90949E-04   -0.40906E-04  1222   0.356E-02
   2 F= -.11826005E+04 E0= -.11826005E+04  d E =-.928018E-03  mag=    -0.0004
       N       E                     dE             d eps       ncg     rms          rms(c)
DAV:   1    -0.117526885334E+04    0.37953E-03   -0.14488E-02  1836   0.189E-01    0.273E-01
RMM:   2    -0.117526841363E+04    0.43971E-03   -0.43305E-04  1254   0.311E-02    0.259E-01
RMM:   3    -0.117526733715E+04    0.10765E-02   -0.34750E-03  1584   0.654E-02    0.936E-02
RMM:   4    -0.117526735595E+04   -0.18795E-04   -0.22941E-04  1142   0.230E-02
   3 F= -.11825988E+04 E0= -.11825988E+04  d E =0.752145E-03  mag=    -0.0001
       N       E                     dE             d eps       ncg     rms          rms(c)
DAV:   1    -0.117526807775E+04   -0.74059E-03   -0.11488E-02  1728   0.168E-01    0.388E-02
RMM:   2    -0.117526807726E+04    0.48976E-06   -0.20899E-04  1038   0.235E-02
   4 F= -.11825994E+04 E0= -.11825994E+04  d E =0.125343E-03  mag=    -0.0001
