       N       E                     dE             d eps       ncg     rms          rms(c)
DAV:   1     0.498123573798E+04    0.49812E+04   -0.16917E+05  1692   0.988E+02
DAV:   2     0.461190157110E+02   -0.49351E+04   -0.45226E+04  2232   0.222E+02
DAV:   3    -0.117505017347E+04   -0.12212E+04   -0.12124E+04  1872   0.122E+02
DAV:   4    -0.123095122220E+04   -0.55901E+02   -0.55474E+02  1872   0.352E+01
DAV:   5    -0.123242678703E+04   -0.14756E+01   -0.14692E+01  2016   0.545E+00    0.680E+01
RMM:   6    -0.121896195828E+04    0.13465E+02   -0.32623E+01  1488   0.654E+00    0.547E+01
RMM:   7    -0.120105766226E+04    0.17904E+02   -0.83672E+00  1440   0.391E+00    0.444E+01
RMM:   8    -0.118276005261E+04    0.18298E+02   -0.53755E+01  1447   0.920E+00    0.359E+01
RMM:   9    -0.116528813127E+04    0.17472E+02   -0.16138E+01  1448   0.552E+00    0.220E+01
RMM:  10    -0.116700367814E+04   -0.17155E+01   -0.81000E+00  1467   0.376E+00    0.133E+01
RMM:  11    -0.116642663249E+04    0.57705E+00   -0.61619E+00  1440   0.343E+00    0.791E+00
RMM:  12    -0.116534090158E+04    0.10857E+01   -0.96865E-01  1496   0.155E+00    0.555E+00
RMM:  13    -0.116501218717E+04    0.32871E+00   -0.93010E-01  1440   0.123E+00    0.274E+00
RMM:  14    -0.116496949816E+04    0.42689E-01   -0.28405E-01  1447   0.809E-01    0.212E+00
RMM:  15    -0.116496049504E+04    0.90031E-02   -0.29916E-02  1579   0.272E-01    0.188E+00
RMM:  16    -0.116490217551E+04    0.58320E-01   -0.32093E-02  1522   0.194E-01    0.134E+00
RMM:  17    -0.116490340482E+04   -0.12293E-02   -0.65952E-03  1548   0.120E-01    0.128E+00
RMM:  18    -0.116489524689E+04    0.81579E-02   -0.14901E-03  1376   0.466E-02    0.116E+00
RMM:  19    -0.116488095503E+04    0.14292E-01   -0.33971E-03  1485   0.610E-02    0.856E-01
RMM:  20    -0.116486611103E+04    0.14844E-01   -0.78254E-03  1495   0.823E-02    0.473E-01
RMM:  21    -0.116486561225E+04    0.49878E-03   -0.54781E-04  1061   0.395E-02    0.480E-01
RMM:  22    -0.116486612547E+04   -0.51322E-03   -0.19578E-04   962   0.196E-02    0.542E-01
RMM:  23    -0.116486404387E+04    0.20816E-02   -0.55161E-04  1163   0.322E-02    0.412E-01
RMM:  24    -0.116486250785E+04    0.15360E-02   -0.87068E-04  1261   0.362E-02    0.270E-01
RMM:  25    -0.116486242368E+04    0.84171E-04   -0.10075E-04   920   0.189E-02
   1 F= -.11720672E+04 E0= -.11720660E+04  d E =-.117207E+04  mag=    -0.0181
       N       E                     dE             d eps       ncg     rms          rms(c)
DAV:   1    -0.116485279315E+04    0.97147E-02   -0.19018E+00  1548   0.214E+00    0.614E-01
RMM:   2    -0.116485571287E+04   -0.29197E-02   -0.52460E-02  1469   0.387E-01    0.411E-01
RMM:   3    -0.116485527976E+04    0.43310E-03   -0.62534E-03  1619   0.119E-01    0.474E-01
RMM:   4    -0.116485544266E+04   -0.16290E-03   -0.43183E-04  1077   0.283E-02    0.487E-01
RMM:   5    -0.116485415654E+04    0.12861E-02   -0.10648E-03  1369   0.410E-02    0.373E-01
RMM:   6    -0.116485336817E+04    0.78838E-03   -0.38314E-03  1437   0.782E-02    0.160E-01
RMM:   7    -0.116485324968E+04    0.11849E-03   -0.34677E-04  1028   0.408E-02    0.102E-01
RMM:   8    -0.116485324482E+04    0.48595E-05   -0.94449E-05   892   0.151E-02
   2 F= -.11720584E+04 E0= -.11720582E+04  d E =0.876101E-02  mag=     0.0021
       N       E                     dE             d eps       ncg     rms          rms(c)
DAV:   1    -0.116486308887E+04   -0.98392E-02   -0.10116E+00  1440   0.156E+00    0.364E-01
RMM:   2    -0.116486433119E+04   -0.12423E-02   -0.24093E-02  1444   0.271E-01    0.330E-01
RMM:   3    -0.116486402005E+04    0.31114E-03   -0.25595E-03  1474   0.814E-02    0.338E-01
RMM:   4    -0.116486411297E+04   -0.92920E-04   -0.18743E-04   960   0.215E-02
   3 F= -.11720690E+04 E0= -.11720681E+04  d E =-.180353E-02  mag=     0.0077
