       N       E                     dE             d eps       ncg     rms          rms(c)
DAV:   1     0.513657453610E+04    0.51366E+04   -0.16906E+05  1800   0.912E+02
DAV:   2     0.316108313208E+02   -0.51050E+04   -0.46356E+04  2448   0.217E+02
DAV:   3    -0.117444123076E+04   -0.12061E+04   -0.11983E+04  2124   0.115E+02
DAV:   4    -0.123411222660E+04   -0.59671E+02   -0.59266E+02  2268   0.365E+01
DAV:   5    -0.123588542811E+04   -0.17732E+01   -0.17639E+01  2232   0.507E+00    0.608E+01
RMM:   6    -0.122231196703E+04    0.13573E+02   -0.69171E+00  1874   0.340E+00    0.494E+01
RMM:   7    -0.118067214875E+04    0.41640E+02   -0.56857E+01  1902   0.969E+00    0.291E+01
RMM:   8    -0.116934915644E+04    0.11323E+02   -0.41350E+01  2018   0.109E+01    0.142E+01
RMM:   9    -0.117088521785E+04   -0.15361E+01   -0.12826E+01  2008   0.637E+00    0.101E+01
RMM:  10    -0.116984920057E+04    0.10360E+01   -0.32415E+00  2023   0.333E+00    0.553E+00
RMM:  11    -0.116960577753E+04    0.24342E+00   -0.68012E-01  2058   0.122E+00    0.283E+00
RMM:  12    -0.116943065179E+04    0.17513E+00   -0.41427E-01  1931   0.828E-01    0.101E+00
RMM:  13    -0.116943165816E+04   -0.10064E-02   -0.66356E-02  1930   0.633E-01    0.584E-01
RMM:  14    -0.116942998357E+04    0.16746E-02   -0.28785E-02  1933   0.312E-01    0.356E-01
RMM:  15    -0.116943103659E+04   -0.10530E-02   -0.12490E-02  2003   0.170E-01    0.183E-01
RMM:  16    -0.116943140613E+04   -0.36954E-03   -0.16461E-03  1814   0.719E-02    0.145E-01
RMM:  17    -0.116943160013E+04   -0.19400E-03   -0.20161E-03  1816   0.801E-02    0.601E-02
RMM:  18    -0.116943185896E+04   -0.25883E-03   -0.35194E-04  1263   0.464E-02    0.383E-02
RMM:  19    -0.116943191378E+04   -0.54820E-04   -0.11504E-04  1076   0.343E-02
   1 F= -.11771599E+04 E0= -.11771559E+04  d E =-.117716E+04  mag=    -0.8935
       N       E                     dE             d eps       ncg     rms          rms(c)
DAV:   1    -0.116943122584E+04    0.63312E-03   -0.40600E-01  1836   0.995E-01    0.277E-01
RMM:   2    -0.116943189765E+04   -0.67181E-03   -0.11829E-02  1969   0.166E-01    0.239E-01
RMM:   3    -0.116943128992E+04    0.60773E-03   -0.87801E-04  1622   0.843E-02    0.189E-01
RMM:   4    -0.116943089605E+04    0.39387E-03   -0.49515E-03  2035   0.106E-01    0.690E-02
RMM:   5    -0.116943079384E+04    0.10221E-03   -0.13214E-04  1097   0.359E-02    0.581E-02
RMM:   6    -0.116943071481E+04    0.79038E-04   -0.20908E-04  1132   0.284E-02
   2 F= -.11771591E+04 E0= -.11771550E+04  d E =0.772477E-03  mag=    -0.8819
       N       E                     dE             d eps       ncg     rms          rms(c)
DAV:   1    -0.116943283709E+04   -0.20432E-02   -0.15220E-01  1872   0.611E-01    0.175E-01
RMM:   2    -0.116943297869E+04   -0.14160E-03   -0.39806E-03  1848   0.965E-02    0.147E-01
RMM:   3    -0.116943263652E+04    0.34217E-03   -0.33335E-04  1198   0.607E-02    0.112E-01
RMM:   4    -0.116943247385E+04    0.16267E-03   -0.21946E-03  1930   0.630E-02    0.423E-02
RMM:   5    -0.116943244000E+04    0.33846E-04   -0.10660E-04  1100   0.401E-02
   3 F= -.11771606E+04 E0= -.11771565E+04  d E =-.689655E-03  mag=    -0.8842
