       N       E                     dE             d eps       ncg     rms          rms(c)
DAV:   1     0.461863718095E+04    0.46186E+04   -0.17468E+05  1908   0.905E+02
DAV:   2    -0.123540257675E+03   -0.47422E+04   -0.43132E+04  2520   0.204E+02
DAV:   3    -0.118886613433E+04   -0.10653E+04   -0.10599E+04  2124   0.105E+02
DAV:   4    -0.123094360641E+04   -0.42077E+02   -0.41872E+02  2052   0.273E+01
DAV:   5    -0.123201915599E+04   -0.10755E+01   -0.10733E+01  2376   0.407E+00    0.658E+01
RMM:   6    -0.121913483157E+04    0.12884E+02   -0.35480E+01  1589   0.548E+00    0.534E+01
RMM:   7    -0.120221486051E+04    0.16920E+02   -0.74165E+00  1585   0.295E+00    0.425E+01
RMM:   8    -0.117845670019E+04    0.23758E+02   -0.24300E+01  1584   0.569E+00    0.292E+01
RMM:   9    -0.116414839556E+04    0.14308E+02   -0.23296E+01  1584   0.548E+00    0.201E+01
RMM:  10    -0.116406667524E+04    0.81720E-01   -0.21996E+01  1584   0.528E+00    0.915E+00
RMM:  11    -0.116377194944E+04    0.29473E+00   -0.10683E+00  1625   0.130E+00    0.675E+00
RMM:  12    -0.116346670865E+04    0.30524E+00   -0.48386E-01  1584   0.684E-01    0.461E+00
RMM:  13    -0.116311541845E+04    0.35129E+00   -0.93107E-01  1584   0.107E+00    0.128E+00
RMM:  14    -0.116306881876E+04    0.46600E-01   -0.12620E-01  1586   0.392E-01    0.803E-01
RMM:  15    -0.116306420399E+04    0.46148E-02   -0.18278E-02  1622   0.140E-01    0.402E-01
RMM:  16    -0.116306394079E+04    0.26320E-03   -0.31140E-03  1584   0.637E-02    0.229E-01
RMM:  17    -0.116306377063E+04    0.17016E-03   -0.20606E-03  1562   0.494E-02    0.132E-01
RMM:  18    -0.116306390445E+04   -0.13382E-03   -0.40865E-04  1163   0.232E-02    0.750E-02
RMM:  19    -0.116306390355E+04    0.90155E-06   -0.78263E-05  1040   0.110E-02
   1 F= -.11701361E+04 E0= -.11701361E+04  d E =-.117014E+04  mag=     1.0052
       N       E                     dE             d eps       ncg     rms          rms(c)
DAV:   1    -0.116305373942E+04    0.10165E-01   -0.19529E+00  1836   0.223E+00    0.519E-01
RMM:   2    -0.116306965275E+04   -0.15913E-01   -0.16757E-01  1587   0.359E-01    0.474E-01
RMM:   3    -0.116306594221E+04    0.37105E-02   -0.56070E-03  1542   0.671E-02    0.424E-01
RMM:   4    -0.116306498958E+04    0.95263E-03   -0.38871E-03  1585   0.665E-02    0.183E-01
RMM:   5    -0.116306500126E+04   -0.11687E-04   -0.83146E-04  1569   0.324E-02
   2 F= -.11701371E+04 E0= -.11701371E+04  d E =-.101413E-02  mag=     0.9999
       N       E                     dE             d eps       ncg     rms          rms(c)
DAV:   1    -0.116306474069E+04    0.24888E-03   -0.40791E-01  1800   0.103E+00    0.230E-01
RMM:   2    -0.116306786642E+04   -0.31257E-02   -0.34322E-02  1569   0.162E-01    0.199E-01
RMM:   3    -0.116306700172E+04    0.86471E-03   -0.10939E-03  1158   0.308E-02    0.170E-01
RMM:   4    -0.116306671029E+04    0.29143E-03   -0.12167E-03  1564   0.373E-02    0.729E-02
RMM:   5    -0.116306671093E+04   -0.64514E-06   -0.15093E-04  1052   0.152E-02
   3 F= -.11701388E+04 E0= -.11701388E+04  d E =-.275775E-02  mag=     1.0000
       N       E                     dE             d eps       ncg     rms          rms(c)
DAV:   1    -0.116306191447E+04    0.47958E-02   -0.82125E-01  1872   0.156E+00    0.275E-01
RMM:   2    -0.116306827377E+04   -0.63593E-02   -0.68154E-02  1586   0.245E-01    0.223E-01
RMM:   3    -0.116306664142E+04    0.16323E-02   -0.22315E-03  1327   0.464E-02    0.191E-01
RMM:   4    -0.116306622736E+04    0.41406E-03   -0.20424E-03  1587   0.475E-02    0.842E-02
RMM:   5    -0.116306622569E+04    0.16722E-05   -0.23200E-04  1099   0.186E-02
   4 F= -.11701382E+04 E0= -.11701382E+04  d E =0.664014E-03  mag=     1.0000
       N       E                     dE             d eps       ncg     rms          rms(c)
DAV:   1    -0.116306627007E+04   -0.42711E-04   -0.28382E-01  1908   0.917E-01    0.158E-01
RMM:   2    -0.116306832649E+04   -0.20564E-02   -0.22597E-02  1584   0.140E-01    0.127E-01
RMM:   3    -0.116306772665E+04    0.59985E-03   -0.72419E-04  1114   0.269E-02    0.107E-01
RMM:   4    -0.116306754311E+04    0.18354E-03   -0.90036E-04  1539   0.320E-02    0.467E-02
RMM:   5    -0.116306754113E+04    0.19815E-05   -0.77529E-05  1011   0.115E-02
   5 F= -.11701396E+04 E0= -.11701396E+04  d E =-.759087E-03  mag=     1.0000
