       N       E                     dE             d eps       ncg     rms          rms(c)
DAV:   1     0.488972097345E+04    0.48897E+04   -0.16994E+05  1836   0.906E+02
DAV:   2    -0.676439406178E+02   -0.49574E+04   -0.45144E+04  2520   0.209E+02
DAV:   3    -0.119954531627E+04   -0.11319E+04   -0.11261E+04  2124   0.110E+02
DAV:   4    -0.124554201307E+04   -0.45997E+02   -0.45798E+02  1980   0.302E+01
DAV:   5    -0.124689572117E+04   -0.13537E+01   -0.13509E+01  2376   0.491E+00    0.682E+01
RMM:   6    -0.122706733698E+04    0.19828E+02   -0.23231E+01  1605   0.518E+00    0.533E+01
RMM:   7    -0.120966455712E+04    0.17403E+02   -0.12475E+01  1584   0.417E+00    0.404E+01
RMM:   8    -0.118577163818E+04    0.23893E+02   -0.29070E+01  1584   0.638E+00    0.269E+01
RMM:   9    -0.117571213372E+04    0.10060E+02   -0.23715E+01  1584   0.589E+00    0.174E+01
RMM:  10    -0.117730810952E+04   -0.15960E+01   -0.14458E+01  1584   0.464E+00    0.849E+00
RMM:  11    -0.117678180107E+04    0.52631E+00   -0.12908E+00  1642   0.183E+00    0.554E+00
RMM:  12    -0.117635984655E+04    0.42195E+00   -0.76202E-01  1584   0.100E+00    0.342E+00
RMM:  13    -0.117610500237E+04    0.25484E+00   -0.42881E-01  1612   0.815E-01    0.155E+00
RMM:  14    -0.117610296153E+04    0.20408E-02   -0.58237E-02  1689   0.304E-01    0.999E-01
RMM:  15    -0.117610328471E+04   -0.32318E-03   -0.74467E-03  1669   0.118E-01    0.732E-01
RMM:  16    -0.117610285722E+04    0.42750E-03   -0.24668E-03  1628   0.560E-02    0.529E-01
RMM:  17    -0.117610283909E+04    0.18125E-04   -0.37873E-03  1602   0.677E-02    0.241E-01
RMM:  18    -0.117610281290E+04    0.26194E-04   -0.59137E-04  1241   0.374E-02
   1 F= -.11834686E+04 E0= -.11834686E+04  d E =-.118347E+04  mag=     0.0148
       N       E                     dE             d eps       ncg     rms          rms(c)
DAV:   1    -0.117610087625E+04    0.19628E-02   -0.48987E-01  1800   0.113E+00    0.211E-01
RMM:   2    -0.117610230216E+04   -0.14259E-02   -0.17286E-02  1598   0.188E-01    0.185E-01
RMM:   3    -0.117610214403E+04    0.15813E-03   -0.11038E-03  1587   0.583E-02    0.181E-01
RMM:   4    -0.117610201297E+04    0.13106E-03   -0.14500E-04  1075   0.170E-02    0.166E-01
RMM:   5    -0.117610167713E+04    0.33584E-03   -0.27316E-03  1584   0.558E-02    0.554E-02
RMM:   6    -0.117610168102E+04   -0.38830E-05   -0.14281E-04  1079   0.239E-02
   2 F= -.11834676E+04 E0= -.11834676E+04  d E =0.100241E-02  mag=    -0.0020
       N       E                     dE             d eps       ncg     rms          rms(c)
DAV:   1    -0.117610381174E+04   -0.21346E-02   -0.18010E-01  1584   0.681E-01    0.119E-01
RMM:   2    -0.117610401772E+04   -0.20598E-03   -0.41607E-03  1588   0.104E-01    0.131E-01
RMM:   3    -0.117610402664E+04   -0.89231E-05   -0.22269E-04  1133   0.276E-02
   3 F= -.11834698E+04 E0= -.11834698E+04  d E =-.126150E-02  mag=    -0.0006
       N       E                     dE             d eps       ncg     rms          rms(c)
DAV:   1    -0.117610261216E+04    0.14056E-02   -0.27426E-01  1728   0.843E-01    0.239E-01
RMM:   2    -0.117610280197E+04   -0.18981E-03   -0.71617E-03  1592   0.128E-01    0.225E-01
RMM:   3    -0.117610216343E+04    0.63854E-03   -0.72626E-04  1585   0.405E-02    0.177E-01
RMM:   4    -0.117610158036E+04    0.58307E-03   -0.25054E-03  1584   0.565E-02    0.791E-02
RMM:   5    -0.117610150642E+04    0.73938E-04   -0.13091E-04  1053   0.227E-02
   4 F= -.11834672E+04 E0= -.11834672E+04  d E =0.261101E-02  mag=    -0.0001
       N       E                     dE             d eps       ncg     rms          rms(c)
DAV:   1    -0.117610396278E+04   -0.23824E-02   -0.17937E-01  1728   0.682E-01    0.123E-01
RMM:   2    -0.117610427694E+04   -0.31415E-03   -0.48246E-03  1590   0.105E-01    0.118E-01
RMM:   3    -0.117610417384E+04    0.10310E-03   -0.22351E-04  1110   0.295E-02    0.106E-01
RMM:   4    -0.117610395387E+04    0.21997E-03   -0.27533E-04  1141   0.230E-02    0.710E-02
RMM:   5    -0.117610385410E+04    0.99767E-04   -0.57315E-04  1508   0.296E-02
   5 F= -.11834696E+04 E0= -.11834696E+04  d E =0.192005E-03  mag=     0.0000
