       N       E                     dE             d eps       ncg     rms          rms(c)
DAV:   1     0.486686799320E+04    0.48669E+04   -0.17365E+05  1872   0.909E+02
DAV:   2    -0.672642813977E+02   -0.49341E+04   -0.44963E+04  2520   0.207E+02
DAV:   3    -0.119154506088E+04   -0.11243E+04   -0.11191E+04  2124   0.109E+02
DAV:   4    -0.123643493407E+04   -0.44890E+02   -0.44673E+02  2052   0.287E+01
DAV:   5    -0.123758398761E+04   -0.11491E+01   -0.11467E+01  2340   0.428E+00    0.773E+01
RMM:   6    -0.123084185679E+04    0.67421E+01   -0.92125E+01  1740   0.905E+00    0.679E+01
RMM:   7    -0.120997195278E+04    0.20870E+02   -0.77051E+00  1821   0.328E+00    0.457E+01
RMM:   8    -0.119454674782E+04    0.15425E+02   -0.14486E+01  1612   0.419E+00    0.381E+01
RMM:   9    -0.118080464942E+04    0.13742E+02   -0.12135E+01  1672   0.392E+00    0.282E+01
RMM:  10    -0.116853103811E+04    0.12274E+02   -0.26720E+01  1606   0.549E+00    0.181E+01
RMM:  11    -0.116886121010E+04   -0.33017E+00   -0.17982E+01  1682   0.455E+00    0.102E+01
RMM:  12    -0.116857860029E+04    0.28261E+00   -0.69671E-01  1941   0.136E+00    0.799E+00
RMM:  13    -0.116809841756E+04    0.48018E+00   -0.21554E+00  1618   0.159E+00    0.361E+00
RMM:  14    -0.116806561412E+04    0.32803E-01   -0.82681E-02  1891   0.408E-01    0.239E+00
RMM:  15    -0.116803658059E+04    0.29034E-01   -0.17963E-01  1624   0.446E-01    0.119E+00
RMM:  16    -0.116803061082E+04    0.59698E-02   -0.21154E-02  1807   0.190E-01    0.653E-01
RMM:  17    -0.116803450599E+04   -0.38952E-02   -0.57602E-03  1809   0.874E-02    0.116E+00
RMM:  18    -0.116803526337E+04   -0.75738E-03   -0.12385E-03  1551   0.489E-02    0.129E+00
RMM:  19    -0.116803516847E+04    0.94899E-04   -0.82748E-03  1653   0.930E-02    0.668E-01
RMM:  20    -0.116803498706E+04    0.18141E-03   -0.50610E-03  1660   0.777E-02    0.823E-01
RMM:  21    -0.116803417621E+04    0.81085E-03   -0.38512E-03  1692   0.597E-02    0.456E-01
RMM:  22    -0.116803419117E+04   -0.14964E-04   -0.23511E-04  1169   0.230E-02
   1 F= -.11750740E+04 E0= -.11750669E+04  d E =-.117507E+04  mag=     2.6982
       N       E                     dE             d eps       ncg     rms          rms(c)
DAV:   1    -0.116803287727E+04    0.12989E-02   -0.33767E-01  1908   0.121E+00    0.370E-01
RMM:   2    -0.116803564562E+04   -0.27683E-02   -0.24336E-02  1772   0.202E-01    0.645E-01
RMM:   3    -0.116803476484E+04    0.88078E-03   -0.20453E-03  1856   0.550E-02    0.230E-01
RMM:   4    -0.116803470558E+04    0.59262E-04   -0.16391E-04  1123   0.201E-02
   2 F= -.11750746E+04 E0= -.11750658E+04  d E =-.597393E-03  mag=     2.6750
       N       E                     dE             d eps       ncg     rms          rms(c)
DAV:   1    -0.116803470926E+04    0.55577E-04   -0.48854E-02  1908   0.444E-01    0.301E-01
RMM:   2    -0.116803556988E+04   -0.86062E-03   -0.46309E-03  1744   0.872E-02    0.574E-01
RMM:   3    -0.116803495348E+04    0.61639E-03   -0.54984E-04  1203   0.302E-02    0.236E-01
RMM:   4    -0.116803503915E+04   -0.85670E-04   -0.74989E-05  1056   0.165E-02
   3 F= -.11750749E+04 E0= -.11750673E+04  d E =-.901187E-03  mag=     2.6984
