       N       E                     dE             d eps       ncg     rms          rms(c)
DAV:   1     0.503557205997E+04    0.50356E+04   -0.17191E+05  1800   0.919E+02
DAV:   2    -0.129152197004E+02   -0.50485E+04   -0.46200E+04  2520   0.211E+02
DAV:   3    -0.118451155676E+04   -0.11716E+04   -0.11637E+04  2124   0.112E+02
DAV:   4    -0.123218512400E+04   -0.47674E+02   -0.47407E+02  2016   0.297E+01
DAV:   5    -0.123338985432E+04   -0.12047E+01   -0.12020E+01  2376   0.434E+00    0.673E+01
RMM:   6    -0.122288319013E+04    0.10507E+02   -0.36079E+01  1584   0.588E+00    0.549E+01
RMM:   7    -0.120927520580E+04    0.13608E+02   -0.52392E+00  1584   0.274E+00    0.466E+01
RMM:   8    -0.117641802732E+04    0.32857E+02   -0.60840E+01  1584   0.887E+00    0.301E+01
RMM:   9    -0.117183909267E+04    0.45789E+01   -0.37350E+00  1590   0.230E+00    0.228E+01
RMM:  10    -0.116804929018E+04    0.37898E+01   -0.84125E+00  1584   0.332E+00    0.155E+01
RMM:  11    -0.116906601344E+04   -0.10167E+01   -0.11878E+01  1584   0.392E+00    0.785E+00
RMM:  12    -0.116737183696E+04    0.16942E+01   -0.20495E+00  1584   0.147E+00    0.338E+00
RMM:  13    -0.116716892889E+04    0.20291E+00   -0.43866E-01  1584   0.683E-01    0.173E+00
RMM:  14    -0.116715910654E+04    0.98223E-02   -0.69018E-02  1596   0.257E-01    0.116E+00
RMM:  15    -0.116714611967E+04    0.12987E-01   -0.26823E-02  1584   0.164E-01    0.134E+00
RMM:  16    -0.116715042912E+04   -0.43095E-02   -0.18985E-02  1585   0.135E-01    0.159E+00
RMM:  17    -0.116713448928E+04    0.15940E-01   -0.14558E-02  1583   0.934E-02    0.460E-01
RMM:  18    -0.116714162180E+04   -0.71325E-02   -0.72084E-03  1583   0.698E-02    0.581E-01
RMM:  19    -0.116713646511E+04    0.51567E-02   -0.31248E-03  1554   0.517E-02    0.197E-01
RMM:  20    -0.116713651592E+04   -0.50806E-04   -0.65612E-04  1217   0.226E-02
   1 F= -.11742758E+04 E0= -.11742758E+04  d E =-.117428E+04  mag=    -0.0012
       N       E                     dE             d eps       ncg     rms          rms(c)
DAV:   1    -0.116713630631E+04    0.15880E-03   -0.84372E-01  1728   0.121E+00    0.259E-01
RMM:   2    -0.116713736420E+04   -0.10579E-02   -0.19356E-02  1584   0.182E-01    0.228E-01
RMM:   3    -0.116713729872E+04    0.65482E-04   -0.98335E-04  1372   0.373E-02
   2 F= -.11742768E+04 E0= -.11742767E+04  d E =-.934280E-03  mag=     0.0000
       N       E                     dE             d eps       ncg     rms          rms(c)
DAV:   1    -0.116713722799E+04    0.13621E-03   -0.87968E-02  1800   0.394E-01    0.886E-02
RMM:   2    -0.116713749682E+04   -0.26884E-03   -0.22865E-03  1583   0.636E-02    0.521E-02
RMM:   3    -0.116713751426E+04   -0.17438E-04   -0.10072E-04  1024   0.127E-02
   3 F= -.11742769E+04 E0= -.11742768E+04  d E =-.110212E-02  mag=    -0.0000
       N       E                     dE             d eps       ncg     rms          rms(c)
DAV:   1    -0.116713728631E+04    0.21051E-03   -0.28012E-01  1764   0.858E-01    0.137E-01
RMM:   2    -0.116713777272E+04   -0.48641E-03   -0.73696E-03  1584   0.129E-01    0.125E-01
RMM:   3    -0.116713772744E+04    0.45279E-04   -0.38242E-04  1193   0.257E-02
   4 F= -.11742773E+04 E0= -.11742772E+04  d E =-.366047E-03  mag=     0.0000
       N       E                     dE             d eps       ncg     rms          rms(c)
DAV:   1    -0.116713828485E+04   -0.51213E-03   -0.57402E-02  1692   0.388E-01    0.543E-02
RMM:   2    -0.116713848465E+04   -0.19980E-03   -0.19034E-03  1584   0.651E-02    0.310E-02
RMM:   3    -0.116713848820E+04   -0.35568E-05   -0.69195E-05   988   0.123E-02
   5 F= -.11742780E+04 E0= -.11742779E+04  d E =-.106040E-02  mag=    -0.0000
