       N       E                     dE             d eps       ncg     rms          rms(c)
DAV:   1     0.506936845947E+04    0.50694E+04   -0.16741E+05  1620   0.986E+02
DAV:   2     0.322680033974E+02   -0.50371E+04   -0.46382E+04  2304   0.226E+02
DAV:   3    -0.118222488000E+04   -0.12145E+04   -0.12043E+04  1872   0.123E+02
DAV:   4    -0.123808814217E+04   -0.55863E+02   -0.55472E+02  1872   0.351E+01
DAV:   5    -0.123958827871E+04   -0.15001E+01   -0.14958E+01  2052   0.570E+00    0.741E+01
RMM:   6    -0.123830269626E+04    0.12856E+01   -0.11575E+02  1590   0.148E+01    0.767E+01
RMM:   7    -0.121567396109E+04    0.22629E+02   -0.75362E+00  1440   0.475E+00    0.475E+01
RMM:   8    -0.119986480594E+04    0.15809E+02   -0.95370E+00  1452   0.423E+00    0.385E+01
RMM:   9    -0.118593878746E+04    0.13926E+02   -0.42527E+01  1455   0.831E+00    0.480E+01
RMM:  10    -0.116867033638E+04    0.17268E+02   -0.19933E+01  1440   0.725E+00    0.218E+01
RMM:  11    -0.116827113708E+04    0.39920E+00   -0.13603E+01  1440   0.493E+00    0.114E+01
RMM:  12    -0.116815382213E+04    0.11731E+00   -0.27999E+00  1454   0.301E+00    0.821E+00
RMM:  13    -0.116735919193E+04    0.79463E+00   -0.87678E-01  1531   0.126E+00    0.544E+00
RMM:  14    -0.116699424615E+04    0.36495E+00   -0.65031E-01  1440   0.110E+00    0.287E+00
RMM:  15    -0.116696951302E+04    0.24733E-01   -0.22521E-01  1563   0.763E-01    0.180E+00
RMM:  16    -0.116696557828E+04    0.39347E-02   -0.27643E-02  1639   0.293E-01    0.160E+00
RMM:  17    -0.116695632930E+04    0.92490E-02   -0.76958E-03  1515   0.131E-01    0.126E+00
RMM:  18    -0.116694446109E+04    0.11868E-01   -0.80429E-03  1504   0.113E-01    0.718E-01
RMM:  19    -0.116694077845E+04    0.36826E-02   -0.48004E-03  1487   0.753E-02    0.405E-01
RMM:  20    -0.116693963879E+04    0.11397E-02   -0.45656E-03  1477   0.780E-02    0.147E-01
RMM:  21    -0.116694011385E+04   -0.47505E-03   -0.12808E-03  1119   0.485E-02    0.201E-01
RMM:  22    -0.116693998293E+04    0.13092E-03   -0.33663E-04   995   0.292E-02    0.150E-01
RMM:  23    -0.116693974217E+04    0.24076E-03   -0.14073E-04   926   0.198E-02    0.687E-02
RMM:  24    -0.116693973271E+04    0.94577E-05   -0.83762E-05   898   0.126E-02
   1 F= -.11739809E+04 E0= -.11739809E+04  d E =-.117398E+04  mag=    -0.9968
       N       E                     dE             d eps       ncg     rms          rms(c)
DAV:   1    -0.116693955074E+04    0.19143E-03   -0.31167E-01  1476   0.984E-01    0.168E-01
RMM:   2    -0.116693993689E+04   -0.38616E-03   -0.83239E-03  1482   0.151E-01    0.157E-01
RMM:   3    -0.116693970243E+04    0.23447E-03   -0.53473E-04  1196   0.539E-02    0.144E-01
RMM:   4    -0.116693909220E+04    0.61023E-03   -0.10506E-03  1428   0.413E-02    0.829E-02
RMM:   5    -0.116693897309E+04    0.11910E-03   -0.80232E-04  1437   0.393E-02    0.448E-02
RMM:   6    -0.116693895553E+04    0.17567E-04   -0.68618E-05   870   0.217E-02
   2 F= -.11739803E+04 E0= -.11739803E+04  d E =0.612532E-03  mag=    -0.9992
       N       E                     dE             d eps       ncg     rms          rms(c)
DAV:   1    -0.116694059592E+04   -0.16228E-02   -0.10958E-01  1584   0.582E-01    0.948E-02
RMM:   2    -0.116694066255E+04   -0.66628E-04   -0.23075E-03  1440   0.838E-02    0.890E-02
RMM:   3    -0.116694052354E+04    0.13900E-03   -0.13709E-04   889   0.292E-02    0.784E-02
RMM:   4    -0.116694033324E+04    0.19030E-03   -0.32631E-04  1059   0.259E-02    0.444E-02
RMM:   5    -0.116694028818E+04    0.45058E-04   -0.24080E-04   935   0.240E-02
   3 F= -.11739815E+04 E0= -.11739815E+04  d E =-.620919E-03  mag=    -1.0002
