       N       E                     dE             d eps       ncg     rms          rms(c)
DAV:   1     0.493110136170E+04    0.49311E+04   -0.17610E+05  1872   0.917E+02
DAV:   2    -0.404712199236E+02   -0.49716E+04   -0.45400E+04  2520   0.211E+02
DAV:   3    -0.119119899968E+04   -0.11507E+04   -0.11459E+04  2124   0.112E+02
DAV:   4    -0.123782296363E+04   -0.46624E+02   -0.46379E+02  2052   0.300E+01
DAV:   5    -0.123904819409E+04   -0.12252E+01   -0.12223E+01  2340   0.460E+00    0.783E+01
RMM:   6    -0.122632914780E+04    0.12719E+02   -0.10822E+02  1636   0.125E+01    0.840E+01
RMM:   7    -0.121189380612E+04    0.14435E+02   -0.60914E+00  1591   0.361E+00    0.651E+01
RMM:   8    -0.119688014609E+04    0.15014E+02   -0.21835E+01  1587   0.535E+00    0.543E+01
RMM:   9    -0.117301759304E+04    0.23863E+02   -0.24422E+01  1593   0.624E+00    0.286E+01
RMM:  10    -0.116932494548E+04    0.36926E+01   -0.38276E+00  1588   0.254E+00    0.238E+01
RMM:  11    -0.116572333567E+04    0.36016E+01   -0.26006E+01  1584   0.603E+00    0.177E+01
RMM:  12    -0.116582180693E+04   -0.98471E-01   -0.15851E+00  1665   0.189E+00    0.854E+00
RMM:  13    -0.116593825099E+04   -0.11644E+00   -0.23748E-01  1619   0.648E-01    0.680E+00
RMM:  14    -0.116556535883E+04    0.37289E+00   -0.94661E-01  1584   0.122E+00    0.762E+00
RMM:  15    -0.116542670027E+04    0.13866E+00   -0.15351E-01  1599   0.519E-01    0.480E+00
RMM:  16    -0.116541272154E+04    0.13979E-01   -0.29462E-02  1649   0.230E-01    0.330E+00
RMM:  17    -0.116539013306E+04    0.22588E-01   -0.24375E-02  1606   0.172E-01    0.211E+00
RMM:  18    -0.116538145505E+04    0.86780E-02   -0.99726E-03  1628   0.118E-01    0.127E+00
RMM:  19    -0.116537713294E+04    0.43221E-02   -0.60668E-03  1610   0.853E-02    0.650E-01
RMM:  20    -0.116537611326E+04    0.10197E-02   -0.27049E-03  1619   0.587E-02    0.409E-01
RMM:  21    -0.116537661058E+04   -0.49732E-03   -0.27002E-04  1085   0.248E-02    0.498E-01
RMM:  22    -0.116537626524E+04    0.34534E-03   -0.24935E-04  1083   0.203E-02    0.330E-01
RMM:  23    -0.116537609536E+04    0.16988E-03   -0.24499E-04  1078   0.177E-02    0.239E-01
RMM:  24    -0.116537616952E+04   -0.74155E-04   -0.49149E-05  1018   0.122E-02
   1 F= -.11724049E+04 E0= -.11724042E+04  d E =-.117240E+04  mag=    -0.9739
       N       E                     dE             d eps       ncg     rms          rms(c)
DAV:   1    -0.116537184121E+04    0.42542E-02   -0.33284E-01  1836   0.159E+00    0.289E-01
RMM:   2    -0.116537780348E+04   -0.59623E-02   -0.63851E-02  1657   0.241E-01    0.388E-01
RMM:   3    -0.116537616399E+04    0.16395E-02   -0.17370E-03  1426   0.550E-02    0.224E-01
RMM:   4    -0.116537600566E+04    0.15833E-03   -0.42469E-04  1091   0.232E-02    0.182E-01
RMM:   5    -0.116537582078E+04    0.18488E-03   -0.92854E-04  1541   0.357E-02    0.114E-01
RMM:   6    -0.116537587412E+04   -0.53347E-04   -0.20303E-04  1073   0.229E-02
   2 F= -.11724050E+04 E0= -.11724045E+04  d E =-.107200E-03  mag=    -0.9984
       N       E                     dE             d eps       ncg     rms          rms(c)
DAV:   1    -0.116537595407E+04   -0.13329E-03   -0.71362E-02  1764   0.730E-01    0.145E-01
RMM:   2    -0.116537712110E+04   -0.11670E-02   -0.12659E-02  1617   0.107E-01    0.895E-02
RMM:   3    -0.116537680000E+04    0.32110E-03   -0.32075E-04  1062   0.235E-02    0.112E-01
RMM:   4    -0.116537677300E+04    0.27003E-04   -0.74377E-05   987   0.103E-02
   3 F= -.11724058E+04 E0= -.11724050E+04  d E =-.820892E-03  mag=    -0.9999
