       N       E                     dE             d eps       ncg     rms          rms(c)
DAV:   1     0.477924294129E+04    0.47792E+04   -0.17575E+05  1824   0.941E+02
DAV:   2    -0.672030451014E+02   -0.48464E+04   -0.44201E+04  2400   0.217E+02
DAV:   3    -0.119508594672E+04   -0.11279E+04   -0.11213E+04  2016   0.112E+02
DAV:   4    -0.124374953751E+04   -0.48664E+02   -0.48383E+02  1984   0.324E+01
DAV:   5    -0.124515203936E+04   -0.14025E+01   -0.13991E+01  2304   0.493E+00    0.724E+01
RMM:   6    -0.122908498662E+04    0.16067E+02   -0.10586E+01  1569   0.415E+00    0.545E+01
RMM:   7    -0.120515041943E+04    0.23935E+02   -0.11592E+02  1671   0.119E+01    0.474E+01
RMM:   8    -0.120121854815E+04    0.39319E+01   -0.91829E+00  1579   0.517E+00    0.422E+01
RMM:   9    -0.119441700388E+04    0.68015E+01   -0.30391E+00  1577   0.254E+00    0.346E+01
RMM:  10    -0.118151039641E+04    0.12907E+02   -0.12541E+01  1644   0.445E+00    0.237E+01
RMM:  11    -0.117977100159E+04    0.17394E+01   -0.20260E+01  1753   0.572E+00    0.226E+01
RMM:  12    -0.118299957166E+04   -0.32286E+01   -0.33507E+00  1783   0.260E+00    0.213E+01
RMM:  13    -0.117937554170E+04    0.36240E+01   -0.28796E+00  1671   0.197E+00    0.111E+01
RMM:  14    -0.117795584703E+04    0.14197E+01   -0.14712E+00  1682   0.124E+00    0.759E+00
RMM:  15    -0.117771009825E+04    0.24575E+00   -0.52330E-01  1713   0.710E-01    0.504E+00
RMM:  16    -0.117784017640E+04   -0.13008E+00   -0.31522E-01  1644   0.588E-01    0.790E+00
RMM:  17    -0.117780020205E+04    0.39974E-01   -0.45802E-02  1699   0.407E-01    0.765E+00
RMM:  18    -0.117779582758E+04    0.43745E-02   -0.41653E-02  1589   0.269E-01    0.627E+00
RMM:  19    -0.117746576818E+04    0.33006E+00   -0.52602E-01  2144   0.933E-01    0.458E+00
RMM:  20    -0.117748921638E+04   -0.23448E-01   -0.11339E-01  1741   0.376E-01    0.311E+00
RMM:  21    -0.117751464018E+04   -0.25424E-01   -0.26527E-02  1677   0.204E-01    0.312E+00
RMM:  22    -0.117757241889E+04   -0.57779E-01   -0.13545E-02  1647   0.168E-01    0.457E+00
RMM:  23    -0.117761082137E+04   -0.38402E-01   -0.35476E-02  1760   0.243E-01    0.316E+00
RMM:  24    -0.117763239595E+04   -0.21575E-01   -0.23872E-02  1726   0.185E-01    0.250E+00
RMM:  25    -0.117763615088E+04   -0.37549E-02   -0.87688E-03  1798   0.112E-01    0.223E+00
RMM:  26    -0.117762786984E+04    0.82810E-02   -0.25761E-02  1877   0.206E-01    0.730E-01
RMM:  27    -0.117763055977E+04   -0.26899E-02   -0.26730E-03  1637   0.680E-02    0.623E-01
RMM:  28    -0.117763131593E+04   -0.75616E-03   -0.17995E-03  1637   0.578E-02    0.507E-01
RMM:  29    -0.117763270414E+04   -0.13882E-02   -0.90781E-04  1700   0.442E-02    0.824E-01
RMM:  30    -0.117763219832E+04    0.50582E-03   -0.79113E-04  1627   0.406E-02    0.477E-01
RMM:  31    -0.117763218422E+04    0.14101E-04   -0.12078E-03  1714   0.427E-02    0.193E-01
RMM:  32    -0.117763236472E+04   -0.18050E-03   -0.19919E-04  1568   0.216E-02    0.149E-01
RMM:  33    -0.117763238991E+04   -0.25184E-04   -0.64123E-05  1604   0.144E-02    0.943E-02
RMM:  34    -0.117763240372E+04   -0.13813E-04   -0.37855E-05  1582   0.854E-03    0.921E-02
RMM:  35    -0.117763239895E+04    0.47684E-05   -0.21284E-05  1610   0.617E-03    0.573E-02
RMM:  36    -0.117763240915E+04   -0.10203E-04   -0.98813E-06  1486   0.467E-03    0.465E-02
RMM:  37    -0.117763240950E+04   -0.34631E-06   -0.43396E-06  1229   0.323E-03
   1 F= -.11847088E+04 E0= -.11847086E+04  d E =-.118471E+04  mag=     0.9999
       N       E                     dE             d eps       ncg     rms          rms(c)
DAV:   1    -0.117763113873E+04    0.12704E-02   -0.33327E-01  1728   0.979E-01    0.149E-01
RMM:   2    -0.117763192302E+04   -0.78429E-03   -0.10227E-02  1557   0.158E-01    0.197E-01
RMM:   3    -0.117763209680E+04   -0.17378E-03   -0.21749E-03  1847   0.681E-02    0.156E-01
RMM:   4    -0.117763202742E+04    0.69375E-04   -0.32989E-04  1847   0.255E-02    0.161E-01
RMM:   5    -0.117763183509E+04    0.19234E-03   -0.28352E-04  1549   0.201E-02    0.110E-01
RMM:   6    -0.117763180973E+04    0.25359E-04   -0.48659E-04  1558   0.256E-02    0.834E-02
RMM:   7    -0.117763182102E+04   -0.11290E-04   -0.13162E-04  1798   0.162E-02    0.614E-02
RMM:   8    -0.117763179837E+04    0.22644E-04   -0.50737E-05  1547   0.838E-03    0.433E-02
RMM:   9    -0.117763179812E+04    0.25321E-06   -0.18408E-05  1676   0.557E-03    0.324E-02
RMM:  10    -0.117763179779E+04    0.33125E-06   -0.74702E-06  1434   0.366E-03
   2 F= -.11847089E+04 E0= -.11847087E+04  d E =-.695268E-04  mag=     0.9999
       N       E                     dE             d eps       ncg     rms          rms(c)
DAV:   1    -0.117763265806E+04   -0.85994E-03   -0.77548E-02  1728   0.470E-01    0.761E-02
RMM:   2    -0.117763276507E+04   -0.10701E-03   -0.17949E-03  1536   0.718E-02    0.961E-02
RMM:   3    -0.117763278180E+04   -0.16731E-04   -0.34461E-04  1787   0.298E-02    0.702E-02
RMM:   4    -0.117763276056E+04    0.21242E-04   -0.63529E-05  1727   0.116E-02    0.711E-02
RMM:   5    -0.117763271138E+04    0.49179E-04   -0.94174E-05  1543   0.119E-02    0.407E-02
RMM:   6    -0.117763270832E+04    0.30616E-05   -0.71979E-05  1562   0.105E-02    0.307E-02
RMM:   7    -0.117763270734E+04    0.98495E-06   -0.14658E-05  1633   0.610E-03    0.180E-02
RMM:   8    -0.117763270782E+04   -0.48116E-06   -0.73873E-06  1514   0.374E-03
   3 F= -.11847095E+04 E0= -.11847093E+04  d E =-.650328E-03  mag=     0.9999
       N       E                     dE             d eps       ncg     rms          rms(c)
DAV:   1    -0.117763285551E+04   -0.14817E-03   -0.15169E-01  1952   0.714E-01    0.999E-02
RMM:   2    -0.117763319173E+04   -0.33623E-03   -0.44103E-03  1539   0.101E-01    0.918E-02
RMM:   3    -0.117763322881E+04   -0.37073E-04   -0.70451E-04  1735   0.401E-02    0.801E-02
RMM:   4    -0.117763319063E+04    0.38174E-04   -0.13684E-04  1632   0.174E-02    0.696E-02
RMM:   5    -0.117763316155E+04    0.29079E-04   -0.58492E-05  1592   0.111E-02    0.506E-02
RMM:   6    -0.117763315077E+04    0.10781E-04   -0.17707E-04  1549   0.166E-02    0.243E-02
RMM:   7    -0.117763315561E+04   -0.48372E-05   -0.22351E-05  1646   0.832E-03    0.169E-02
RMM:   8    -0.117763315715E+04   -0.15396E-05   -0.74148E-06  1483   0.410E-03    0.112E-02
RMM:   9    -0.117763315767E+04   -0.52041E-06   -0.26077E-06  1085   0.262E-03
   4 F= -.11847102E+04 E0= -.11847100E+04  d E =-.737154E-03  mag=     0.9999
       N       E                     dE             d eps       ncg     rms          rms(c)
DAV:   1    -0.117763311484E+04    0.42307E-04   -0.59720E-03  1728   0.141E-01    0.202E-02
RMM:   2    -0.117763312754E+04   -0.12700E-04   -0.17445E-04  1540   0.202E-02    0.193E-02
RMM:   3    -0.117763312888E+04   -0.13406E-05   -0.28081E-05  1642   0.813E-03    0.167E-02
RMM:   4    -0.117763312832E+04    0.56709E-06   -0.58543E-06  1201   0.388E-03
   5 F= -.11847102E+04 E0= -.11847100E+04  d E =-.764692E-03  mag=     0.9999
       N       E                     dE             d eps       ncg     rms          rms(c)
DAV:   1    -0.117763331678E+04   -0.18790E-03   -0.13736E-01  1728   0.636E-01    0.105E-01
RMM:   2    -0.117763351476E+04   -0.19798E-03   -0.30275E-03  1536   0.908E-02    0.130E-01
RMM:   3    -0.117763354730E+04   -0.32542E-04   -0.57634E-04  1773   0.377E-02    0.898E-02
RMM:   4    -0.117763352686E+04    0.20447E-04   -0.92143E-05  1698   0.146E-02    0.890E-02
RMM:   5    -0.117763349474E+04    0.32122E-04   -0.23950E-04  1552   0.192E-02    0.371E-02
RMM:   6    -0.117763351448E+04   -0.19743E-04   -0.91448E-05  1593   0.128E-02    0.272E-02
RMM:   7    -0.117763351053E+04    0.39459E-05   -0.96310E-06  1527   0.595E-03    0.193E-02
RMM:   8    -0.117763351099E+04   -0.45709E-06   -0.19273E-05  1502   0.498E-03    0.916E-03
RMM:   9    -0.117763351162E+04   -0.63075E-06   -0.27956E-06  1129   0.278E-03
   6 F= -.11847109E+04 E0= -.11847107E+04  d E =-.633006E-03  mag=     0.9999
