       N       E                     dE             d eps       ncg     rms          rms(c)
DAV:   1     0.469785464824E+04    0.46979E+04   -0.17220E+05  1944   0.903E+02
DAV:   2    -0.214205456127E+02   -0.47193E+04   -0.42691E+04  2556   0.206E+02
DAV:   3    -0.117296876128E+04   -0.11515E+04   -0.11430E+04  2196   0.111E+02
DAV:   4    -0.123798574381E+04   -0.65017E+02   -0.64678E+02  2376   0.344E+01
DAV:   5    -0.123965000179E+04   -0.16643E+01   -0.16592E+01  2196   0.514E+00    0.708E+01
RMM:   6    -0.122188875743E+04    0.17761E+02   -0.91108E+00  2108   0.468E+00    0.551E+01
RMM:   7    -0.118934219264E+04    0.32547E+02   -0.57062E+01  2090   0.129E+01    0.317E+01
RMM:   8    -0.117677271978E+04    0.12569E+02   -0.16926E+01  2084   0.768E+00    0.271E+01
RMM:   9    -0.117085108840E+04    0.59216E+01   -0.15140E+01  2049   0.603E+00    0.213E+01
RMM:  10    -0.117061969755E+04    0.23139E+00   -0.49802E+00  2056   0.673E+00    0.139E+01
RMM:  11    -0.117160087022E+04   -0.98117E+00   -0.22861E+00  2103   0.225E+00    0.910E+00
RMM:  12    -0.117189670019E+04   -0.29583E+00   -0.57085E-01  2116   0.119E+00    0.589E+00
RMM:  13    -0.117132210965E+04    0.57459E+00   -0.98233E-01  2050   0.134E+00    0.265E+00
RMM:  14    -0.117129402080E+04    0.28089E-01   -0.45478E-01  2053   0.189E+00    0.117E+00
RMM:  15    -0.117129448955E+04   -0.46875E-03   -0.36720E-02  2075   0.430E-01    0.579E-01
RMM:  16    -0.117129219116E+04    0.22984E-02   -0.61263E-03  1989   0.132E-01    0.475E-01
RMM:  17    -0.117129190700E+04    0.28416E-03   -0.31504E-03  1757   0.126E-01    0.264E-01
RMM:  18    -0.117129219020E+04   -0.28320E-03   -0.74027E-04  1322   0.113E-01    0.214E-01
RMM:  19    -0.117129240819E+04   -0.21799E-03   -0.26273E-04  1218   0.114E-01    0.163E-01
RMM:  20    -0.117129240210E+04    0.60826E-05   -0.14378E-04  1212   0.150E-01
   1 F= -.11785699E+04 E0= -.11785674E+04  d E =-.117857E+04  mag=     0.0630
       N       E                     dE             d eps       ncg     rms          rms(c)
DAV:   1    -0.117129186781E+04    0.54038E-03   -0.28049E-01  2052   0.930E-01    0.201E-01
RMM:   2    -0.117129225447E+04   -0.38666E-03   -0.72494E-03  2084   0.131E-01    0.209E-01
RMM:   3    -0.117129230673E+04   -0.52260E-04   -0.18150E-03  1179   0.277E-01    0.204E-01
RMM:   4    -0.117129224015E+04    0.66584E-04   -0.41211E-05  1104   0.879E-02
   2 F= -.11785702E+04 E0= -.11785678E+04  d E =-.324903E-03  mag=     0.0600
       N       E                     dE             d eps       ncg     rms          rms(c)
DAV:   1    -0.117129241162E+04   -0.10489E-03   -0.35625E-02  2124   0.350E-01    0.923E-02
RMM:   2    -0.117129248447E+04   -0.72849E-04   -0.71214E-04  1855   0.508E-02
   3 F= -.11785703E+04 E0= -.11785679E+04  d E =-.404266E-03  mag=     0.0606
