       N       E                     dE             d eps       ncg     rms          rms(c)
DAV:   1     0.479172271322E+04    0.47917E+04   -0.17465E+05  1944   0.914E+02
DAV:   2    -0.515197328478E+01   -0.47969E+04   -0.43697E+04  2556   0.209E+02
DAV:   3    -0.119011092738E+04   -0.11850E+04   -0.11776E+04  2304   0.113E+02
DAV:   4    -0.124345084323E+04   -0.53340E+02   -0.53046E+02  2196   0.314E+01
DAV:   5    -0.124531954451E+04   -0.18687E+01   -0.18648E+01  2448   0.554E+00    0.795E+01
RMM:   6    -0.122737072900E+04    0.17949E+02   -0.80511E+00  2044   0.450E+00    0.640E+01
RMM:   7    -0.119196620633E+04    0.35405E+02   -0.99750E+01  2083   0.220E+01    0.311E+01
RMM:   8    -0.118439266288E+04    0.75735E+01   -0.18917E+01  2081   0.919E+00    0.260E+01
RMM:   9    -0.117770501755E+04    0.66876E+01   -0.11953E+01  2077   0.600E+00    0.229E+01
RMM:  10    -0.117655801537E+04    0.11470E+01   -0.15320E+01  2035   0.614E+00    0.247E+01
RMM:  11    -0.117703498288E+04   -0.47697E+00   -0.35150E+00  2065   0.771E+00    0.131E+01
RMM:  12    -0.117758360228E+04   -0.54862E+00   -0.19972E+00  2079   0.325E+00    0.109E+01
RMM:  13    -0.117727284585E+04    0.31076E+00   -0.93793E-01  2197   0.109E+00    0.922E+00
RMM:  14    -0.117598959005E+04    0.12833E+01   -0.86586E-01  2050   0.147E+00    0.425E+00
RMM:  15    -0.117601348551E+04   -0.23895E-01   -0.33084E-01  2031   0.203E+00    0.397E+00
RMM:  16    -0.117607951483E+04   -0.66029E-01   -0.23135E-01  2132   0.690E-01    0.311E+00
RMM:  17    -0.117613261251E+04   -0.53098E-01   -0.38208E-02  2107   0.469E-01    0.280E+00
RMM:  18    -0.117615262700E+04   -0.20014E-01   -0.28542E-02  2088   0.224E-01    0.232E+00
RMM:  19    -0.117615930414E+04   -0.66771E-02   -0.22335E-02  2016   0.245E-01    0.129E+00
RMM:  20    -0.117615596177E+04    0.33424E-02   -0.91671E-03  1635   0.169E-01    0.112E+00
RMM:  21    -0.117615486472E+04    0.10970E-02   -0.16786E-03  1393   0.147E-01    0.767E-01
RMM:  22    -0.117615478546E+04    0.79261E-04   -0.61580E-03  1546   0.190E-01    0.458E-01
RMM:  23    -0.117615294643E+04    0.18390E-02   -0.10620E-03  1350   0.174E-01    0.387E-01
RMM:  24    -0.117615244911E+04    0.49732E-03   -0.72218E-04  1356   0.140E-01    0.459E-01
RMM:  25    -0.117615116300E+04    0.12861E-02   -0.56394E-04  1308   0.155E-01    0.295E-01
RMM:  26    -0.117615095949E+04    0.20350E-03   -0.42895E-04  1297   0.153E-01    0.299E-01
RMM:  27    -0.117615045273E+04    0.50676E-03   -0.53972E-04  1333   0.132E-01    0.256E-01
RMM:  28    -0.117615039376E+04    0.58977E-04   -0.22871E-04  1237   0.117E-01
   1 F= -.11834638E+04 E0= -.11834638E+04  d E =-.118346E+04  mag=    -0.9757
       N       E                     dE             d eps       ncg     rms          rms(c)
DAV:   1    -0.117613858962E+04    0.11863E-01   -0.10529E+00  2124   0.218E+00    0.134E+00
RMM:   2    -0.117614364921E+04   -0.50596E-02   -0.66200E-02  2246   0.278E-01    0.112E+00
RMM:   3    -0.117614336612E+04    0.28309E-03   -0.54606E-03  1353   0.314E-01    0.900E-01
RMM:   4    -0.117614335267E+04    0.13446E-04   -0.32930E-03  1518   0.145E-01    0.547E-01
RMM:   5    -0.117614315675E+04    0.19592E-03   -0.14221E-03  1340   0.153E-01    0.355E-01
RMM:   6    -0.117614312490E+04    0.31854E-04   -0.75425E-04  1288   0.176E-01
   2 F= -.11834576E+04 E0= -.11834576E+04  d E =0.626296E-02  mag=    -1.0042
       N       E                     dE             d eps       ncg     rms          rms(c)
DAV:   1    -0.117614672074E+04   -0.35640E-02   -0.68190E-01  2016   0.179E+00    0.959E-01
RMM:   2    -0.117614981302E+04   -0.30923E-02   -0.37514E-02  2149   0.221E-01    0.100E+00
RMM:   3    -0.117615035532E+04   -0.54230E-03   -0.76510E-03  1311   0.303E-01    0.845E-01
RMM:   4    -0.117614951916E+04    0.83615E-03   -0.26718E-03  1679   0.119E-01    0.466E-01
RMM:   5    -0.117614972263E+04   -0.20346E-03   -0.29078E-03  1801   0.142E-01    0.247E-01
RMM:   6    -0.117614965462E+04    0.68005E-04   -0.51707E-04  1253   0.117E-01
   3 F= -.11834633E+04 E0= -.11834633E+04  d E =0.536266E-03  mag=    -0.9997
