       N       E                     dE             d eps       ncg     rms          rms(c)
DAV:   1     0.482170320078E+04    0.48217E+04   -0.17202E+05  1872   0.907E+02
DAV:   2    -0.759809607936E+02   -0.48977E+04   -0.44596E+04  2520   0.205E+02
DAV:   3    -0.119323074179E+04   -0.11172E+04   -0.11128E+04  2124   0.108E+02
DAV:   4    -0.123768910808E+04   -0.44458E+02   -0.44270E+02  1980   0.286E+01
DAV:   5    -0.123889095918E+04   -0.12019E+01   -0.11997E+01  2340   0.445E+00    0.894E+01
RMM:   6    -0.122489614588E+04    0.13995E+02   -0.78432E+00  1584   0.308E+00    0.775E+01
RMM:   7    -0.118123918280E+04    0.43657E+02   -0.85628E+01  1584   0.103E+01    0.435E+01
RMM:   8    -0.117691857491E+04    0.43206E+01   -0.11652E+01  1602   0.321E+00    0.492E+01
RMM:   9    -0.117576666582E+04    0.11519E+01   -0.23554E+01  1584   0.527E+00    0.332E+01
RMM:  10    -0.117975355598E+04   -0.39869E+01   -0.60841E+00  1585   0.272E+00    0.222E+01
RMM:  11    -0.117723353567E+04    0.25200E+01   -0.12421E+00  1631   0.102E+00    0.167E+01
RMM:  12    -0.117434092852E+04    0.28926E+01   -0.31697E+00  1584   0.112E+00    0.987E+00
RMM:  13    -0.117372749062E+04    0.61344E+00   -0.68968E-01  1596   0.570E-01    0.907E+00
RMM:  14    -0.117359937875E+04    0.12811E+00   -0.88476E-02  1586   0.298E-01    0.769E+00
RMM:  15    -0.117319133957E+04    0.40804E+00   -0.63160E-01  1584   0.853E-01    0.446E+00
RMM:  16    -0.117301651981E+04    0.17482E+00   -0.16716E-01  1585   0.418E-01    0.387E+00
RMM:  17    -0.117300159602E+04    0.14924E-01   -0.11194E-01  1584   0.364E-01    0.259E+00
RMM:  18    -0.117295064696E+04    0.50949E-01   -0.77913E-02  1584   0.295E-01    0.143E+00
RMM:  19    -0.117294595675E+04    0.46902E-02   -0.22803E-02  1614   0.132E-01    0.101E+00
RMM:  20    -0.117294479141E+04    0.11653E-02   -0.74292E-03  1562   0.711E-02    0.102E+00
RMM:  21    -0.117294691322E+04   -0.21218E-02   -0.13551E-02  1584   0.104E-01    0.943E-01
RMM:  22    -0.117294402311E+04    0.28901E-02   -0.32960E-03  1528   0.470E-02    0.563E-01
RMM:  23    -0.117294385634E+04    0.16677E-03   -0.77285E-04  1148   0.206E-02    0.396E-01
RMM:  24    -0.117294403871E+04   -0.18237E-03   -0.17629E-03  1374   0.334E-02    0.176E-01
RMM:  25    -0.117294405122E+04   -0.12513E-04   -0.14500E-04  1050   0.123E-02
   1 F= -.11802999E+04 E0= -.11802999E+04  d E =-.118030E+04  mag=    -1.9989
       N       E                     dE             d eps       ncg     rms          rms(c)
DAV:   1    -0.117294301119E+04    0.10275E-02   -0.65200E-01  1692   0.108E+00    0.108E+00
RMM:   2    -0.117294417712E+04   -0.11659E-02   -0.18053E-02  1584   0.158E-01    0.940E-01
RMM:   3    -0.117294351386E+04    0.66327E-03   -0.13052E-03  1620   0.415E-02    0.753E-01
RMM:   4    -0.117294343635E+04    0.77507E-04   -0.65098E-03  1584   0.850E-02    0.164E-01
RMM:   5    -0.117294323483E+04    0.20152E-03   -0.28499E-04  1092   0.192E-02    0.111E-01
RMM:   6    -0.117294320121E+04    0.33622E-04   -0.72807E-05  1019   0.991E-03
   2 F= -.11802999E+04 E0= -.11802999E+04  d E =-.104299E-05  mag=    -1.9999
       N       E                     dE             d eps       ncg     rms          rms(c)
DAV:   1    -0.117294493987E+04   -0.17050E-02   -0.14069E-01  1620   0.500E-01    0.541E-01
RMM:   2    -0.117294505972E+04   -0.11985E-03   -0.30938E-03  1583   0.662E-02    0.453E-01
RMM:   3    -0.117294479689E+04    0.26282E-03   -0.38057E-04  1187   0.227E-02    0.321E-01
RMM:   4    -0.117294479661E+04    0.28712E-06   -0.12988E-03  1582   0.382E-02    0.914E-02
RMM:   5    -0.117294474201E+04    0.54599E-04   -0.58365E-05  1012   0.893E-03
   3 F= -.11803010E+04 E0= -.11803010E+04  d E =-.114026E-02  mag=    -2.0000
       N       E                     dE             d eps       ncg     rms          rms(c)
DAV:   1    -0.117294613227E+04   -0.13357E-02   -0.27344E-01  1728   0.757E-01    0.340E-01
RMM:   2    -0.117294602515E+04    0.10711E-03   -0.45599E-03  1584   0.931E-02    0.332E-01
RMM:   3    -0.117294578871E+04    0.23644E-03   -0.22304E-04  1127   0.201E-02    0.316E-01
RMM:   4    -0.117294499195E+04    0.79677E-03   -0.25664E-03  1584   0.544E-02    0.105E-01
RMM:   5    -0.117294500026E+04   -0.83138E-05   -0.14548E-04  1067   0.155E-02
   4 F= -.11803017E+04 E0= -.11803017E+04  d E =-.715910E-03  mag=    -2.0000
       N       E                     dE             d eps       ncg     rms          rms(c)
DAV:   1    -0.117294523937E+04   -0.24743E-03   -0.10707E-02  1728   0.150E-01    0.649E-02
RMM:   2    -0.117294520921E+04    0.30167E-04   -0.15022E-04  1019   0.179E-02
   5 F= -.11803018E+04 E0= -.11803018E+04  d E =-.835838E-03  mag=    -2.0000
