       N       E                     dE             d eps       ncg     rms          rms(c)
DAV:   1     0.497733789729E+04    0.49773E+04   -0.17048E+05  1800   0.911E+02
DAV:   2    -0.382251748530E+02   -0.50156E+04   -0.45739E+04  2520   0.210E+02
DAV:   3    -0.118715601757E+04   -0.11489E+04   -0.11428E+04  2124   0.111E+02
DAV:   4    -0.123310373666E+04   -0.45948E+02   -0.45701E+02  2016   0.291E+01
DAV:   5    -0.123429412189E+04   -0.11904E+01   -0.11880E+01  2304   0.440E+00    0.664E+01
RMM:   6    -0.121681343908E+04    0.17481E+02   -0.26526E+01  1584   0.509E+00    0.566E+01
RMM:   7    -0.120380564204E+04    0.13008E+02   -0.61709E+00  1584   0.276E+00    0.437E+01
RMM:   8    -0.118394223477E+04    0.19863E+02   -0.16584E+01  1584   0.471E+00    0.324E+01
RMM:   9    -0.116774492165E+04    0.16197E+02   -0.22773E+01  1584   0.547E+00    0.220E+01
RMM:  10    -0.116496100254E+04    0.27839E+01   -0.18511E+01  1584   0.488E+00    0.124E+01
RMM:  11    -0.116619867249E+04   -0.12377E+01   -0.38706E+00  1590   0.232E+00    0.732E+00
RMM:  12    -0.116551949362E+04    0.67918E+00   -0.49827E-01  1584   0.810E-01    0.528E+00
RMM:  13    -0.116530154882E+04    0.21794E+00   -0.84117E-01  1584   0.998E-01    0.317E+00
RMM:  14    -0.116524328472E+04    0.58264E-01   -0.14400E-01  1590   0.378E-01    0.235E+00
RMM:  15    -0.116525567277E+04   -0.12388E-01   -0.13237E-01  1584   0.346E-01    0.170E+00
RMM:  16    -0.116524992276E+04    0.57500E-02   -0.73076E-03  1593   0.912E-02    0.140E+00
RMM:  17    -0.116524667560E+04    0.32472E-02   -0.24373E-02  1584   0.138E-01    0.477E-01
RMM:  18    -0.116524642100E+04    0.25460E-03   -0.65962E-03  1584   0.925E-02    0.329E-01
RMM:  19    -0.116524622802E+04    0.19298E-03   -0.30560E-03  1564   0.613E-02    0.265E-01
RMM:  20    -0.116524708448E+04   -0.85647E-03   -0.72555E-04  1477   0.333E-02    0.251E-01
RMM:  21    -0.116524714656E+04   -0.62074E-04   -0.10874E-04  1034   0.103E-02
   1 F= -.11723786E+04 E0= -.11723786E+04  d E =-.117238E+04  mag=     0.0102
       N       E                     dE             d eps       ncg     rms          rms(c)
DAV:   1    -0.116524383466E+04    0.32498E-02   -0.19106E+00  1656   0.183E+00    0.556E-01
RMM:   2    -0.116524734154E+04   -0.35069E-02   -0.43484E-02  1587   0.253E-01    0.580E-01
RMM:   3    -0.116524739638E+04   -0.54844E-04   -0.21780E-03  1589   0.511E-02    0.569E-01
RMM:   4    -0.116524709600E+04    0.30038E-03   -0.63869E-04  1419   0.303E-02    0.437E-01
RMM:   5    -0.116524706291E+04    0.33088E-04   -0.32720E-03  1578   0.627E-02    0.174E-01
RMM:   6    -0.116524706343E+04   -0.52391E-06   -0.19179E-04  1085   0.175E-02
   2 F= -.11723797E+04 E0= -.11723797E+04  d E =-.114866E-02  mag=     0.0000
       N       E                     dE             d eps       ncg     rms          rms(c)
DAV:   1    -0.116524936029E+04   -0.22974E-02   -0.34536E-01  1692   0.779E-01    0.223E-01
RMM:   2    -0.116524972708E+04   -0.36679E-03   -0.63510E-03  1587   0.991E-02    0.236E-01
RMM:   3    -0.116524971241E+04    0.14668E-04   -0.28687E-04  1110   0.191E-02
   3 F= -.11723819E+04 E0= -.11723819E+04  d E =-.327022E-02  mag=     0.0000
       N       E                     dE             d eps       ncg     rms          rms(c)
DAV:   1    -0.116524778172E+04    0.19454E-02   -0.12063E+00  1620   0.136E+00    0.307E-01
RMM:   2    -0.116524951144E+04   -0.17297E-02   -0.21065E-02  1584   0.174E-01    0.272E-01
RMM:   3    -0.116524939350E+04    0.11794E-03   -0.78849E-04  1302   0.333E-02    0.244E-01
RMM:   4    -0.116524909778E+04    0.29572E-03   -0.96779E-04  1540   0.368E-02    0.145E-01
RMM:   5    -0.116524905271E+04    0.45074E-04   -0.50695E-04  1402   0.261E-02
   4 F= -.11723820E+04 E0= -.11723820E+04  d E =-.117424E-03  mag=    -0.0000
       N       E                     dE             d eps       ncg     rms          rms(c)
DAV:   1    -0.116525009701E+04   -0.99923E-03   -0.24680E-01  1728   0.620E-01    0.171E-01
RMM:   2    -0.116525037987E+04   -0.28286E-03   -0.43486E-03  1582   0.775E-02    0.170E-01
RMM:   3    -0.116525035272E+04    0.27154E-04   -0.14425E-04  1037   0.150E-02
   5 F= -.11723829E+04 E0= -.11723829E+04  d E =-.106614E-02  mag=    -0.0000
       N       E                     dE             d eps       ncg     rms          rms(c)
DAV:   1    -0.116525067666E+04   -0.29679E-03   -0.31391E-01  1728   0.745E-01    0.146E-01
RMM:   2    -0.116525125263E+04   -0.57597E-03   -0.62940E-03  1584   0.107E-01    0.122E-01
RMM:   3    -0.116525120738E+04    0.45254E-04   -0.24783E-04  1124   0.213E-02
   6 F= -.11723839E+04 E0= -.11723839E+04  d E =-.102071E-02  mag=    -0.0000
       N       E                     dE             d eps       ncg     rms          rms(c)
DAV:   1    -0.116525107059E+04    0.18204E-03   -0.48343E-03  1800   0.919E-02    0.777E-02
RMM:   2    -0.116525104824E+04    0.22352E-04   -0.69152E-05   992   0.114E-02
   7 F= -.11723838E+04 E0= -.11723838E+04  d E =-.883323E-03  mag=    -0.0000
