       N       E                     dE             d eps       ncg     rms          rms(c)
DAV:   1     0.460197613618E+04    0.46020E+04   -0.17840E+05  1920   0.943E+02
DAV:   2    -0.803314791832E+02   -0.46823E+04   -0.42629E+04  2400   0.212E+02
DAV:   3    -0.119578888789E+04   -0.11155E+04   -0.11094E+04  1984   0.111E+02
DAV:   4    -0.124419151214E+04   -0.48403E+02   -0.48088E+02  1952   0.321E+01
DAV:   5    -0.124563080083E+04   -0.14393E+01   -0.14358E+01  2368   0.507E+00    0.723E+01
RMM:   6    -0.122896386297E+04    0.16667E+02   -0.11136E+01  1573   0.420E+00    0.530E+01
RMM:   7    -0.120229375798E+04    0.26670E+02   -0.38960E+01  1566   0.757E+00    0.340E+01
RMM:   8    -0.118423120638E+04    0.18063E+02   -0.25630E+01  1556   0.701E+00    0.252E+01
RMM:   9    -0.117768065221E+04    0.65506E+01   -0.18377E+01  1573   0.597E+00    0.174E+01
RMM:  10    -0.117930465782E+04   -0.16240E+01   -0.12256E+01  1586   0.510E+00    0.148E+01
RMM:  11    -0.117904824176E+04    0.25642E+00   -0.29299E+00  1684   0.300E+00    0.887E+00
RMM:  12    -0.117865720773E+04    0.39103E+00   -0.53349E-01  1739   0.124E+00    0.613E+00
RMM:  13    -0.117819386986E+04    0.46334E+00   -0.15314E+00  1543   0.151E+00    0.365E+00
RMM:  14    -0.117823342407E+04   -0.39554E-01   -0.34960E-01  1556   0.906E-01    0.299E+00
RMM:  15    -0.117819793657E+04    0.35487E-01   -0.40241E-02  1572   0.410E-01    0.210E+00
RMM:  16    -0.117818064473E+04    0.17292E-01   -0.30804E-02  1592   0.235E-01    0.143E+00
RMM:  17    -0.117817675427E+04    0.38905E-02   -0.17834E-02  1650   0.176E-01    0.108E+00
RMM:  18    -0.117817398166E+04    0.27726E-02   -0.56268E-03  1778   0.105E-01    0.789E-01
RMM:  19    -0.117817306876E+04    0.91290E-03   -0.21726E-03  1585   0.646E-02    0.481E-01
RMM:  20    -0.117817287890E+04    0.18987E-03   -0.25108E-03  1600   0.589E-02    0.428E-01
RMM:  21    -0.117817299870E+04   -0.11980E-03   -0.80987E-04  1578   0.446E-02    0.200E-01
RMM:  22    -0.117817288381E+04    0.11489E-03   -0.41613E-04  1590   0.285E-02    0.110E-01
RMM:  23    -0.117817293857E+04   -0.54756E-04   -0.16781E-04  1626   0.216E-02    0.118E-01
RMM:  24    -0.117817294701E+04   -0.84426E-05   -0.42543E-05  1612   0.113E-02    0.504E-02
RMM:  25    -0.117817296765E+04   -0.20643E-04   -0.19518E-05  1563   0.694E-03    0.310E-02
RMM:  26    -0.117817297737E+04   -0.97149E-05   -0.99037E-06  1518   0.484E-03    0.873E-03
RMM:  27    -0.117817298077E+04   -0.34074E-05   -0.38730E-06  1174   0.320E-03    0.991E-03
RMM:  28    -0.117817297957E+04    0.12091E-05   -0.22011E-06  1079   0.228E-03    0.115E-02
RMM:  29    -0.117817297897E+04    0.59113E-06   -0.69812E-07  1022   0.157E-03
   1 F= -.11852491E+04 E0= -.11852428E+04  d E =-.118525E+04  mag=     1.7946
