       N       E                     dE             d eps       ncg     rms          rms(c)
DAV:   1     0.496692962287E+04    0.49669E+04   -0.17521E+05  1872   0.923E+02
DAV:   2    -0.459025299009E+02   -0.50128E+04   -0.45906E+04  2628   0.216E+02
DAV:   3    -0.119220746618E+04   -0.11463E+04   -0.11406E+04  2088   0.112E+02
DAV:   4    -0.124766622424E+04   -0.55459E+02   -0.55153E+02  2052   0.359E+01
DAV:   5    -0.124971939337E+04   -0.20532E+01   -0.20443E+01  2232   0.599E+00    0.673E+01
RMM:   6    -0.123576522085E+04    0.13954E+02   -0.80538E+00  1819   0.363E+00    0.548E+01
RMM:   7    -0.119273910562E+04    0.43026E+02   -0.87790E+01  1849   0.113E+01    0.311E+01
RMM:   8    -0.118508511712E+04    0.76540E+01   -0.14826E+01  1867   0.834E+00    0.219E+01
RMM:   9    -0.118387441233E+04    0.12107E+01   -0.30299E+01  1682   0.690E+00    0.132E+01
RMM:  10    -0.118442176899E+04   -0.54736E+00   -0.37515E+00  1686   0.763E+00    0.976E+00
RMM:  11    -0.118343430274E+04    0.98747E+00   -0.17013E+00  2120   0.157E+00    0.682E+00
RMM:  12    -0.118294246684E+04    0.49184E+00   -0.28739E+00  1821   0.187E+00    0.484E+00
RMM:  13    -0.118267117969E+04    0.27129E+00   -0.43267E-01  1907   0.147E+00    0.239E+00
RMM:  14    -0.118264798579E+04    0.23194E-01   -0.17098E-01  1723   0.489E-01    0.180E+00
RMM:  15    -0.118264626946E+04    0.17163E-02   -0.36821E-02  1751   0.576E-01    0.133E+00
RMM:  16    -0.118264642783E+04   -0.15837E-03   -0.17998E-02  1823   0.184E-01    0.109E+00
RMM:  17    -0.118264650358E+04   -0.75750E-04   -0.26858E-03  1510   0.176E-01    0.930E-01
RMM:  18    -0.118264656361E+04   -0.60035E-04   -0.11543E-03  1528   0.515E-02    0.768E-01
RMM:  19    -0.118264579738E+04    0.76624E-03   -0.76003E-04  1559   0.679E-02    0.621E-01
RMM:  20    -0.118264538129E+04    0.41608E-03   -0.11254E-03  1509   0.489E-02    0.412E-01
RMM:  21    -0.118264531471E+04    0.66585E-04   -0.32994E-04  1215   0.607E-02
   1 F= -.11898527E+04 E0= -.11898527E+04  d E =-.118985E+04  mag=    -0.0129
       N       E                     dE             d eps       ncg     rms          rms(c)
DAV:   1    -0.118264539614E+04   -0.14843E-04   -0.39234E-01  1728   0.964E-01    0.383E-01
RMM:   2    -0.118264572205E+04   -0.32592E-03   -0.11191E-02  1858   0.163E-01    0.387E-01
RMM:   3    -0.118264552672E+04    0.19534E-03   -0.91493E-04  1509   0.927E-02    0.370E-01
RMM:   4    -0.118264495869E+04    0.56803E-03   -0.43663E-04  1376   0.376E-02    0.305E-01
RMM:   5    -0.118264476827E+04    0.19042E-03   -0.39242E-03  1784   0.840E-02    0.130E-01
RMM:   6    -0.118264472743E+04    0.40839E-04   -0.42643E-04  1265   0.815E-02
   2 F= -.11898525E+04 E0= -.11898525E+04  d E =0.254601E-03  mag=     0.0013
       N       E                     dE             d eps       ncg     rms          rms(c)
DAV:   1    -0.118264652680E+04   -0.17585E-02   -0.12109E-01  1692   0.534E-01    0.141E-01
RMM:   2    -0.118264643760E+04    0.89204E-04   -0.28102E-03  1745   0.880E-02    0.129E-01
RMM:   3    -0.118264608551E+04    0.35209E-03   -0.38274E-04  1169   0.643E-02    0.103E-01
RMM:   4    -0.118264578878E+04    0.29673E-03   -0.80726E-04  1564   0.400E-02    0.587E-02
RMM:   5    -0.118264576266E+04    0.26115E-04   -0.25992E-04  1146   0.621E-02
   3 F= -.11898533E+04 E0= -.11898533E+04  d E =-.595704E-03  mag=    -0.0001
