       N       E                     dE             d eps       ncg     rms          rms(c)
DAV:   1     0.487925213147E+04    0.48793E+04   -0.18312E+05  1908   0.941E+02
DAV:   2    -0.621401814426E+02   -0.49414E+04   -0.45388E+04  2592   0.215E+02
DAV:   3    -0.120401249125E+04   -0.11419E+04   -0.11344E+04  2016   0.111E+02
DAV:   4    -0.125298943481E+04   -0.48977E+02   -0.48601E+02  2016   0.305E+01
DAV:   5    -0.125424956566E+04   -0.12601E+01   -0.12558E+01  2376   0.465E+00    0.100E+02
RMM:   6    -0.125485272825E+04   -0.60316E+00   -0.21174E+02  1964   0.198E+01    0.993E+01
RMM:   7    -0.123319021740E+04    0.21663E+02   -0.10422E+01  1603   0.526E+00    0.730E+01
RMM:   8    -0.120052507342E+04    0.32665E+02   -0.33788E+01  1586   0.808E+00    0.363E+01
RMM:   9    -0.119020155171E+04    0.10324E+02   -0.10024E+01  1587   0.438E+00    0.299E+01
RMM:  10    -0.117965468495E+04    0.10547E+02   -0.13622E+01  1585   0.477E+00    0.237E+01
RMM:  11    -0.117374885007E+04    0.59058E+01   -0.21132E+01  1584   0.538E+00    0.148E+01
RMM:  12    -0.117584706973E+04   -0.20982E+01   -0.68199E+00  1597   0.406E+00    0.195E+01
RMM:  13    -0.117464868455E+04    0.11984E+01   -0.10556E+00  1654   0.156E+00    0.718E+00
RMM:  14    -0.117455046302E+04    0.98222E-01   -0.22813E-01  1622   0.599E-01    0.609E+00
RMM:  15    -0.117431933670E+04    0.23113E+00   -0.56119E-01  1605   0.899E-01    0.529E+00
RMM:  16    -0.117418960014E+04    0.12974E+00   -0.43734E-01  1584   0.808E-01    0.337E+00
RMM:  17    -0.117415371413E+04    0.35886E-01   -0.57288E-02  1618   0.373E-01    0.233E+00
RMM:  18    -0.117415450093E+04   -0.78680E-03   -0.48793E-03  1645   0.850E-02    0.229E+00
RMM:  19    -0.117415293832E+04    0.15626E-02   -0.78034E-03  1646   0.101E-01    0.182E+00
RMM:  20    -0.117415204637E+04    0.89196E-03   -0.96041E-03  1590   0.130E-01    0.131E+00
RMM:  21    -0.117415057995E+04    0.14664E-02   -0.16417E-03  1464   0.442E-02    0.109E+00
RMM:  22    -0.117414978681E+04    0.79314E-03   -0.84118E-04  1352   0.351E-02    0.801E-01
RMM:  23    -0.117414962211E+04    0.16470E-03   -0.67544E-04  1453   0.335E-02    0.537E-01
RMM:  24    -0.117414920699E+04    0.41512E-03   -0.42967E-04  1219   0.257E-02    0.318E-01
RMM:  25    -0.117414912141E+04    0.85581E-04   -0.21346E-04  1095   0.210E-02
   1 F= -.11812733E+04 E0= -.11812733E+04  d E =-.118127E+04  mag=    -0.9994
       N       E                     dE             d eps       ncg     rms          rms(c)
DAV:   1    -0.117414527452E+04    0.39325E-02   -0.68695E-01  1656   0.180E+00    0.348E-01
RMM:   2    -0.117414873611E+04   -0.34616E-02   -0.42203E-02  1822   0.333E-01    0.226E-01
RMM:   3    -0.117414826352E+04    0.47259E-03   -0.22369E-03  1718   0.825E-02    0.204E-01
RMM:   4    -0.117414785910E+04    0.40442E-03   -0.79058E-04  1535   0.334E-02    0.152E-01
RMM:   5    -0.117414767645E+04    0.18265E-03   -0.15870E-03  1581   0.459E-02    0.702E-02
RMM:   6    -0.117414765645E+04    0.19993E-04   -0.90914E-05  1026   0.180E-02
   2 F= -.11812721E+04 E0= -.11812721E+04  d E =0.113102E-02  mag=    -0.9998
       N       E                     dE             d eps       ncg     rms          rms(c)
DAV:   1    -0.117414937041E+04   -0.16940E-02   -0.24828E-01  1728   0.108E+00    0.172E-01
RMM:   2    -0.117415045161E+04   -0.10812E-02   -0.13617E-02  1779   0.194E-01    0.117E-01
RMM:   3    -0.117415024851E+04    0.20310E-03   -0.58185E-04  1261   0.437E-02    0.115E-01
RMM:   4    -0.117415011425E+04    0.13426E-03   -0.17069E-04  1052   0.202E-02    0.919E-02
RMM:   5    -0.117414995173E+04    0.16252E-03   -0.94779E-04  1543   0.352E-02    0.366E-02
RMM:   6    -0.117414994286E+04    0.88685E-05   -0.40687E-05   989   0.132E-02
   3 F= -.11812742E+04 E0= -.11812742E+04  d E =-.953345E-03  mag=    -0.9998
