       N       E                     dE             d eps       ncg     rms          rms(c)
DAV:   1     0.490451797339E+04    0.49045E+04   -0.16840E+05  1692   0.983E+02
DAV:   2     0.823859694730E+01   -0.48963E+04   -0.44937E+04  2268   0.219E+02
DAV:   3    -0.117629191669E+04   -0.11845E+04   -0.11775E+04  1872   0.119E+02
DAV:   4    -0.122786570955E+04   -0.51574E+02   -0.51237E+02  1872   0.330E+01
DAV:   5    -0.122911916366E+04   -0.12535E+01   -0.12504E+01  2088   0.482E+00    0.653E+01
RMM:   6    -0.121370982311E+04    0.15409E+02   -0.22938E+01  1440   0.474E+00    0.509E+01
RMM:   7    -0.119504604472E+04    0.18664E+02   -0.12300E+01  1440   0.429E+00    0.394E+01
RMM:   8    -0.116821338055E+04    0.26833E+02   -0.40854E+01  1440   0.789E+00    0.246E+01
RMM:   9    -0.116225303184E+04    0.59603E+01   -0.17133E+01  1440   0.514E+00    0.157E+01
RMM:  10    -0.116378380302E+04   -0.15308E+01   -0.11167E+01  1440   0.412E+00    0.818E+00
RMM:  11    -0.116362902690E+04    0.15478E+00   -0.21505E+00  1458   0.141E+00    0.591E+00
RMM:  12    -0.116259872212E+04    0.10303E+01   -0.24192E+00  1440   0.175E+00    0.153E+00
RMM:  13    -0.116257561866E+04    0.23103E-01   -0.59732E-02  1450   0.305E-01    0.761E-01
RMM:  14    -0.116256681112E+04    0.88075E-02   -0.35789E-02  1471   0.180E-01    0.433E-01
RMM:  15    -0.116256716092E+04   -0.34980E-03   -0.11141E-02  1440   0.128E-01    0.297E-01
RMM:  16    -0.116256730873E+04   -0.14781E-03   -0.18933E-03  1439   0.528E-02    0.198E-01
RMM:  17    -0.116256693028E+04    0.37845E-03   -0.10592E-03  1323   0.360E-02    0.111E-01
RMM:  18    -0.116256699016E+04   -0.59884E-04   -0.36992E-04  1057   0.245E-02
   1 F= -.11697982E+04 E0= -.11697982E+04  d E =-.116980E+04  mag=     0.0027
       N       E                     dE             d eps       ncg     rms          rms(c)
DAV:   1    -0.116256616946E+04    0.76082E-03   -0.99125E-01  1584   0.145E+00    0.423E-01
RMM:   2    -0.116256748227E+04   -0.13128E-02   -0.17942E-02  1441   0.195E-01    0.404E-01
RMM:   3    -0.116256725629E+04    0.22598E-03   -0.13362E-03  1299   0.439E-02    0.365E-01
RMM:   4    -0.116256653803E+04    0.71826E-03   -0.37575E-03  1440   0.719E-02    0.907E-02
RMM:   5    -0.116256659700E+04   -0.58971E-04   -0.28982E-04   976   0.229E-02
   2 F= -.11697980E+04 E0= -.11697980E+04  d E =0.244216E-03  mag=     0.0003
       N       E                     dE             d eps       ncg     rms          rms(c)
DAV:   1    -0.116256884129E+04   -0.23033E-02   -0.24761E-01  1548   0.723E-01    0.201E-01
RMM:   2    -0.116256904892E+04   -0.20762E-03   -0.36394E-03  1440   0.898E-02    0.190E-01
RMM:   3    -0.116256893363E+04    0.11529E-03   -0.23492E-04   964   0.202E-02    0.165E-01
RMM:   4    -0.116256873349E+04    0.20014E-03   -0.12665E-03  1430   0.422E-02    0.371E-02
RMM:   5    -0.116256873143E+04    0.20596E-05   -0.39988E-05   864   0.981E-03
   3 F= -.11698000E+04 E0= -.11698000E+04  d E =-.181303E-02  mag=     0.0001
       N       E                     dE             d eps       ncg     rms          rms(c)
DAV:   1    -0.116257068574E+04   -0.19523E-02   -0.78463E-01  1440   0.134E+00    0.303E-01
RMM:   2    -0.116257129297E+04   -0.60723E-03   -0.12902E-02  1440   0.178E-01    0.273E-01
RMM:   3    -0.116257053746E+04    0.75551E-03   -0.98355E-04  1428   0.429E-02    0.212E-01
RMM:   4    -0.116256986694E+04    0.67052E-03   -0.38164E-03  1440   0.711E-02    0.605E-02
RMM:   5    -0.116256982826E+04    0.38680E-04   -0.10591E-04   926   0.155E-02
   4 F= -.11698003E+04 E0= -.11698003E+04  d E =-.275929E-03  mag=     0.0000
       N       E                     dE             d eps       ncg     rms          rms(c)
DAV:   1    -0.116257051951E+04   -0.65257E-03   -0.17861E-01  1584   0.641E-01    0.139E-01
RMM:   2    -0.116257060632E+04   -0.86812E-04   -0.27601E-03  1440   0.816E-02    0.126E-01
RMM:   3    -0.116257036115E+04    0.24517E-03   -0.24914E-04   954   0.224E-02    0.928E-02
RMM:   4    -0.116257018787E+04    0.17328E-03   -0.10020E-03  1410   0.373E-02    0.273E-02
RMM:   5    -0.116257018023E+04    0.76423E-05   -0.25401E-05   855   0.821E-03
   5 F= -.11698010E+04 E0= -.11698010E+04  d E =-.101859E-02  mag=     0.0000
       N       E                     dE             d eps       ncg     rms          rms(c)
DAV:   1    -0.116257116851E+04   -0.98064E-03   -0.34105E-01  1440   0.954E-01    0.126E-01
RMM:   2    -0.116257150808E+04   -0.33957E-03   -0.59344E-03  1440   0.123E-01    0.126E-01
RMM:   3    -0.116257144264E+04    0.65438E-04   -0.34448E-04  1060   0.270E-02
   6 F= -.11698021E+04 E0= -.11698021E+04  d E =-.110730E-02  mag=     0.0000
       N       E                     dE             d eps       ncg     rms          rms(c)
DAV:   1    -0.116257116548E+04    0.34260E-03   -0.19979E-02  1584   0.232E-01    0.105E-01
RMM:   2    -0.116257109822E+04    0.67266E-04   -0.24185E-04   993   0.257E-02
   7 F= -.11698018E+04 E0= -.11698018E+04  d E =-.724813E-03  mag=    -0.0000
