       N       E                     dE             d eps       ncg     rms          rms(c)
DAV:   1     0.471453400457E+04    0.47145E+04   -0.17521E+05  1908   0.913E+02
DAV:   2    -0.894791742031E+02   -0.48040E+04   -0.43763E+04  2520   0.214E+02
DAV:   3    -0.119186277952E+04   -0.11024E+04   -0.10973E+04  2088   0.110E+02
DAV:   4    -0.124504218692E+04   -0.53179E+02   -0.52906E+02  2016   0.356E+01
DAV:   5    -0.124704910776E+04   -0.20069E+01   -0.19984E+01  2268   0.599E+00    0.677E+01
RMM:   6    -0.123215895624E+04    0.14890E+02   -0.87681E+00  1808   0.373E+00    0.554E+01
RMM:   7    -0.119023940448E+04    0.41920E+02   -0.99353E+01  1879   0.121E+01    0.335E+01
RMM:   8    -0.118376520996E+04    0.64742E+01   -0.95136E+00  1936   0.811E+00    0.248E+01
RMM:   9    -0.118007335915E+04    0.36919E+01   -0.23048E+01  1663   0.569E+00    0.151E+01
RMM:  10    -0.118094561173E+04   -0.87225E+00   -0.93767E+00  1819   0.730E+00    0.964E+00
RMM:  11    -0.117970109586E+04    0.12445E+01   -0.29764E+00  2018   0.219E+00    0.642E+00
RMM:  12    -0.117919326912E+04    0.50783E+00   -0.20773E+00  1894   0.194E+00    0.574E+00
RMM:  13    -0.117884616874E+04    0.34710E+00   -0.57581E-01  1965   0.110E+00    0.288E+00
RMM:  14    -0.117882052546E+04    0.25643E-01   -0.24619E-01  1716   0.745E-01    0.160E+00
RMM:  15    -0.117879923941E+04    0.21286E-01   -0.50698E-02  1779   0.668E-01    0.167E+00
RMM:  16    -0.117880112266E+04   -0.18832E-02   -0.16956E-02  1896   0.206E-01    0.139E+00
RMM:  17    -0.117880052374E+04    0.59892E-03   -0.21045E-03  1586   0.123E-01    0.124E+00
RMM:  18    -0.117879436351E+04    0.61602E-02   -0.37180E-03  1795   0.841E-02    0.995E-01
RMM:  19    -0.117879208506E+04    0.22785E-02   -0.21665E-03  1614   0.810E-02    0.760E-01
RMM:  20    -0.117879154878E+04    0.53628E-03   -0.12450E-03  1501   0.615E-02    0.478E-01
RMM:  21    -0.117879131057E+04    0.23821E-03   -0.53760E-04  1324   0.612E-02    0.358E-01
RMM:  22    -0.117879111208E+04    0.19850E-03   -0.39991E-04  1237   0.409E-02    0.284E-01
RMM:  23    -0.117879103492E+04    0.77160E-04   -0.22667E-04  1159   0.337E-02
   1 F= -.11859444E+04 E0= -.11859433E+04  d E =-.118594E+04  mag=    -0.9721
       N       E                     dE             d eps       ncg     rms          rms(c)
DAV:   1    -0.117879149538E+04   -0.38330E-03   -0.22468E-01  1728   0.727E-01    0.281E-01
RMM:   2    -0.117879177230E+04   -0.27692E-03   -0.67708E-03  1845   0.123E-01    0.282E-01
RMM:   3    -0.117879166888E+04    0.10342E-03   -0.63243E-04  1460   0.809E-02    0.274E-01
RMM:   4    -0.117879131323E+04    0.35565E-03   -0.27553E-04  1188   0.304E-02    0.224E-01
RMM:   5    -0.117879111621E+04    0.19702E-03   -0.26545E-03  1733   0.674E-02    0.899E-02
RMM:   6    -0.117879111602E+04    0.19199E-06   -0.36292E-04  1290   0.802E-02
   2 F= -.11859446E+04 E0= -.11859436E+04  d E =-.195676E-03  mag=    -0.9776
       N       E                     dE             d eps       ncg     rms          rms(c)
DAV:   1    -0.117879178855E+04   -0.67234E-03   -0.57966E-02  1764   0.368E-01    0.912E-02
RMM:   2    -0.117879176243E+04    0.26115E-04   -0.12507E-03  1620   0.599E-02    0.863E-02
RMM:   3    -0.117879166969E+04    0.92737E-04   -0.13417E-04  1019   0.427E-02
   3 F= -.11859451E+04 E0= -.11859440E+04  d E =-.689602E-03  mag=    -0.9771
