       N       E                     dE             d eps       ncg     rms          rms(c)
DAV:   1     0.487549481133E+04    0.48755E+04   -0.17776E+05  1856   0.954E+02
DAV:   2    -0.420000178589E+02   -0.49175E+04   -0.45012E+04  2496   0.213E+02
DAV:   3    -0.120029323058E+04   -0.11583E+04   -0.11527E+04  1952   0.112E+02
DAV:   4    -0.124951777684E+04   -0.49225E+02   -0.48909E+02  1888   0.308E+01
DAV:   5    -0.125083040587E+04   -0.13126E+01   -0.13090E+01  2208   0.473E+00    0.696E+01
RMM:   6    -0.123656766125E+04    0.14263E+02   -0.85133E+00  1574   0.348E+00    0.551E+01
RMM:   7    -0.119978599097E+04    0.36782E+02   -0.94628E+01  1658   0.108E+01    0.302E+01
RMM:   8    -0.119126104048E+04    0.85250E+01   -0.12731E+01  1582   0.518E+00    0.252E+01
RMM:   9    -0.118599335178E+04    0.52677E+01   -0.35660E+01  1635   0.724E+00    0.156E+01
RMM:  10    -0.118740400830E+04   -0.14107E+01   -0.86415E+00  1573   0.406E+00    0.125E+01
RMM:  11    -0.118481065861E+04    0.25933E+01   -0.42780E+00  1649   0.227E+00    0.670E+00
RMM:  12    -0.118467141018E+04    0.13925E+00   -0.10951E+00  1586   0.126E+00    0.457E+00
RMM:  13    -0.118437433296E+04    0.29708E+00   -0.53137E-01  1551   0.970E-01    0.218E+00
RMM:  14    -0.118434176093E+04    0.32572E-01   -0.19097E-01  1597   0.560E-01    0.137E+00
RMM:  15    -0.118437531452E+04   -0.33554E-01   -0.37960E-02  1614   0.271E-01    0.103E+00
RMM:  16    -0.118438577267E+04   -0.10458E-01   -0.19119E-02  1579   0.181E-01    0.948E-01
RMM:  17    -0.118438706314E+04   -0.12905E-02   -0.42085E-03  1766   0.808E-02    0.104E+00
RMM:  18    -0.118438574275E+04    0.13204E-02   -0.12179E-02  1605   0.132E-01    0.976E-01
RMM:  19    -0.118438982676E+04   -0.40840E-02   -0.47605E-03  1575   0.881E-02    0.105E+00
RMM:  20    -0.118438955033E+04    0.27643E-03   -0.25825E-03  1610   0.620E-02    0.116E+00
RMM:  21    -0.118438698746E+04    0.25629E-02   -0.34932E-03  1737   0.544E-02    0.130E+00
RMM:  22    -0.118438708864E+04   -0.10118E-03   -0.34248E-04  1849   0.216E-02    0.132E+00
RMM:  23    -0.118438717114E+04   -0.82502E-04   -0.11833E-04  1856   0.112E-02    0.135E+00
RMM:  24    -0.118438711204E+04    0.59101E-04   -0.98093E-04  1881   0.350E-02    0.125E+00
RMM:  25    -0.118438710762E+04    0.44159E-05   -0.14498E-04  1614   0.159E-02    0.122E+00
RMM:  26    -0.118438727185E+04   -0.16423E-03   -0.73810E-04  1972   0.289E-02    0.127E+00
RMM:  27    -0.118438715417E+04    0.11768E-03   -0.79190E-05  1581   0.116E-02    0.122E+00
RMM:  28    -0.118438715494E+04   -0.76147E-06   -0.25217E-05  1676   0.574E-03    0.121E+00
RMM:  29    -0.118438713531E+04    0.19623E-04   -0.72487E-06  1278   0.283E-03    0.123E+00
RMM:  30    -0.118438701154E+04    0.12377E-03   -0.20456E-04  2365   0.167E-02    0.947E-01
RMM:  31    -0.118438694396E+04    0.67580E-04   -0.49458E-05  2010   0.795E-03    0.804E-01
RMM:  32    -0.118438672574E+04    0.21822E-03   -0.16816E-04  2284   0.140E-02    0.628E-01
RMM:  33    -0.118438665748E+04    0.68265E-04   -0.51465E-05  1991   0.778E-03    0.524E-01
RMM:  34    -0.118438657766E+04    0.79817E-04   -0.96576E-05  2205   0.110E-02    0.357E-01
RMM:  35    -0.118438652639E+04    0.51271E-04   -0.10370E-04  2225   0.112E-02    0.165E-01
RMM:  36    -0.118438651786E+04    0.85301E-05   -0.17396E-05  1647   0.504E-03    0.104E-01
RMM:  37    -0.118438651016E+04    0.76972E-05   -0.34221E-05  1834   0.682E-03    0.203E-02
RMM:  38    -0.118438651023E+04   -0.71523E-07   -0.43052E-06  1314   0.281E-03
   1 F= -.11917857E+04 E0= -.11917857E+04  d E =-.119179E+04  mag=     1.0001
       N       E                     dE             d eps       ncg     rms          rms(c)
DAV:   1    -0.118438302951E+04    0.34807E-02   -0.55741E-01  1600   0.126E+00    0.245E-01
RMM:   2    -0.118438439464E+04   -0.13651E-02   -0.18505E-02  1692   0.215E-01    0.221E-01
RMM:   3    -0.118438443409E+04   -0.39445E-04   -0.35625E-03  1683   0.891E-02    0.188E-01
RMM:   4    -0.118438438502E+04    0.49069E-04   -0.23254E-03  1588   0.624E-02    0.849E-02
RMM:   5    -0.118438440520E+04   -0.20176E-04   -0.37429E-04  1833   0.285E-02    0.698E-02
RMM:   6    -0.118438437706E+04    0.28136E-04   -0.12440E-04  1553   0.136E-02    0.371E-02
RMM:   7    -0.118438438585E+04   -0.87888E-05   -0.24352E-05  1741   0.687E-03    0.276E-02
RMM:   8    -0.118438438610E+04   -0.25416E-06   -0.35168E-05  1549   0.690E-03    0.841E-03
RMM:   9    -0.118438438551E+04    0.58977E-06   -0.81795E-06  1569   0.384E-03
   2 F= -.11917852E+04 E0= -.11917852E+04  d E =0.568110E-03  mag=     1.0000
       N       E                     dE             d eps       ncg     rms          rms(c)
DAV:   1    -0.118438647188E+04   -0.20858E-02   -0.17261E-01  1792   0.705E-01    0.139E-01
RMM:   2    -0.118438683739E+04   -0.36551E-03   -0.52128E-03  1674   0.117E-01    0.124E-01
RMM:   3    -0.118438682063E+04    0.16763E-04   -0.93795E-04  1641   0.473E-02    0.101E-01
RMM:   4    -0.118438680387E+04    0.16754E-04   -0.64420E-04  1593   0.329E-02    0.474E-02
RMM:   5    -0.118438680606E+04   -0.21894E-05   -0.94754E-05  1785   0.146E-02    0.374E-02
RMM:   6    -0.118438679927E+04    0.67966E-05   -0.31118E-05  1534   0.708E-03    0.205E-02
RMM:   7    -0.118438680096E+04   -0.16935E-05   -0.63755E-06  1467   0.355E-03    0.147E-02
RMM:   8    -0.118438680054E+04    0.42329E-06   -0.94905E-06  1519   0.364E-03
   3 F= -.11917867E+04 E0= -.11917867E+04  d E =-.976948E-03  mag=     1.0000
