       N       E                     dE             d eps       ncg     rms          rms(c)
DAV:   1     0.473326288230E+04    0.47333E+04   -0.17835E+05  1888   0.948E+02
DAV:   2    -0.616463343957E+02   -0.47949E+04   -0.43717E+04  2400   0.215E+02
DAV:   3    -0.119527052849E+04   -0.11336E+04   -0.11278E+04  1984   0.113E+02
DAV:   4    -0.124477630026E+04   -0.49506E+02   -0.49179E+02  1952   0.330E+01
DAV:   5    -0.124620893590E+04   -0.14326E+01   -0.14263E+01  2304   0.513E+00    0.724E+01
RMM:   6    -0.122858912553E+04    0.17620E+02   -0.11429E+01  1578   0.436E+00    0.528E+01
RMM:   7    -0.120457279729E+04    0.24016E+02   -0.32677E+01  1562   0.703E+00    0.361E+01
RMM:   8    -0.118661227021E+04    0.17961E+02   -0.23051E+01  1551   0.663E+00    0.272E+01
RMM:   9    -0.117845246434E+04    0.81598E+01   -0.17929E+01  1563   0.592E+00    0.186E+01
RMM:  10    -0.117894017533E+04   -0.48771E+00   -0.12318E+01  1572   0.504E+00    0.105E+01
RMM:  11    -0.117963005638E+04   -0.68988E+00   -0.33390E+00  1746   0.284E+00    0.749E+00
RMM:  12    -0.117869744930E+04    0.93261E+00   -0.20136E+00  1539   0.188E+00    0.322E+00
RMM:  13    -0.117868290117E+04    0.14548E-01   -0.51909E-01  1594   0.109E+00    0.105E+00
RMM:  14    -0.117867766649E+04    0.52347E-02   -0.50294E-02  1604   0.450E-01    0.734E-01
RMM:  15    -0.117867226397E+04    0.54025E-02   -0.30809E-02  1565   0.251E-01    0.510E-01
RMM:  16    -0.117867078212E+04    0.14819E-02   -0.22223E-02  1633   0.210E-01    0.191E-01
RMM:  17    -0.117867070430E+04    0.77814E-04   -0.50232E-03  1676   0.112E-01    0.132E-01
RMM:  18    -0.117867072836E+04   -0.24053E-04   -0.94190E-04  1781   0.473E-02    0.112E-01
RMM:  19    -0.117867080561E+04   -0.77256E-04   -0.35136E-04  1571   0.270E-02    0.958E-02
RMM:  20    -0.117867089874E+04   -0.93132E-04   -0.21068E-04  1568   0.216E-02    0.630E-02
RMM:  21    -0.117867088181E+04    0.16938E-04   -0.56807E-05  1571   0.115E-02    0.427E-02
RMM:  22    -0.117867088642E+04   -0.46185E-05   -0.44906E-05  1546   0.944E-03    0.254E-02
RMM:  23    -0.117867089290E+04   -0.64804E-05   -0.17172E-05  1536   0.648E-03    0.192E-02
RMM:  24    -0.117867088920E+04    0.37065E-05   -0.11435E-05  1554   0.470E-03    0.105E-02
RMM:  25    -0.117867089024E+04   -0.10451E-05   -0.36975E-06  1197   0.318E-03    0.439E-03
RMM:  26    -0.117867089010E+04    0.14682E-06   -0.84970E-07  1017   0.181E-03
   1 F= -.11857416E+04 E0= -.11857416E+04  d E =-.118574E+04  mag=     2.0000
       N       E                     dE             d eps       ncg     rms          rms(c)
DAV:   1    -0.117866873054E+04    0.21597E-02   -0.34028E-01  1728   0.107E+00    0.170E-01
RMM:   2    -0.117866976048E+04   -0.10299E-02   -0.12193E-02  1567   0.178E-01    0.181E-01
RMM:   3    -0.117866993486E+04   -0.17437E-03   -0.23710E-03  1858   0.755E-02    0.150E-01
RMM:   4    -0.117866981473E+04    0.12013E-03   -0.37583E-04  1748   0.291E-02    0.134E-01
RMM:   5    -0.117866960779E+04    0.20693E-03   -0.67703E-04  1547   0.324E-02    0.669E-02
RMM:   6    -0.117866961135E+04   -0.35606E-05   -0.24333E-04  1662   0.211E-02    0.562E-02
RMM:   7    -0.117866959317E+04    0.18187E-04   -0.47367E-05  1591   0.108E-02    0.334E-02
RMM:   8    -0.117866960200E+04   -0.88334E-05   -0.38735E-05  1555   0.873E-03    0.204E-02
RMM:   9    -0.117866959888E+04    0.31188E-05   -0.10306E-05  1578   0.493E-03    0.165E-02
RMM:  10    -0.117866959702E+04    0.18613E-05   -0.11576E-05  1534   0.441E-03    0.121E-02
RMM:  11    -0.117866959714E+04   -0.12248E-06   -0.19571E-06  1037   0.257E-03
   2 F= -.11857408E+04 E0= -.11857408E+04  d E =0.755179E-03  mag=     2.0000
       N       E                     dE             d eps       ncg     rms          rms(c)
DAV:   1    -0.117867093650E+04   -0.13395E-02   -0.12864E-01  1760   0.657E-01    0.107E-01
RMM:   2    -0.117867125742E+04   -0.32091E-03   -0.40274E-03  1544   0.107E-01    0.109E-01
RMM:   3    -0.117867130270E+04   -0.45281E-04   -0.76349E-04  1841   0.450E-02    0.888E-02
RMM:   4    -0.117867125217E+04    0.50532E-04   -0.14110E-04  1687   0.179E-02    0.772E-02
RMM:   5    -0.117867118179E+04    0.70379E-04   -0.26348E-04  1544   0.206E-02    0.371E-02
RMM:   6    -0.117867118410E+04   -0.23091E-05   -0.72687E-05  1740   0.120E-02    0.322E-02
RMM:   7    -0.117867117791E+04    0.61857E-05   -0.17082E-05  1542   0.601E-03    0.193E-02
RMM:   8    -0.117867118020E+04   -0.22924E-05   -0.14410E-05  1538   0.545E-03    0.111E-02
RMM:   9    -0.117867117916E+04    0.10408E-05   -0.36026E-06  1184   0.300E-03    0.874E-03
RMM:  10    -0.117867117843E+04    0.73548E-06   -0.45020E-06  1354   0.290E-03
   3 F= -.11857421E+04 E0= -.11857421E+04  d E =-.495809E-03  mag=     2.0000
       N       E                     dE             d eps       ncg     rms          rms(c)
DAV:   1    -0.117867085869E+04    0.32048E-03   -0.22161E-01  1856   0.869E-01    0.124E-01
RMM:   2    -0.117867137937E+04   -0.52068E-03   -0.60863E-03  1536   0.129E-01    0.121E-01
RMM:   3    -0.117867146721E+04   -0.87838E-04   -0.10980E-03  1770   0.531E-02    0.980E-02
RMM:   4    -0.117867144063E+04    0.26579E-04   -0.19950E-04  1692   0.216E-02    0.871E-02
RMM:   5    -0.117867138913E+04    0.51492E-04   -0.19012E-04  1544   0.183E-02    0.465E-02
RMM:   6    -0.117867139373E+04   -0.45945E-05   -0.11125E-04  1568   0.142E-02    0.317E-02
RMM:   7    -0.117867139611E+04   -0.23859E-05   -0.18137E-05  1615   0.759E-03    0.174E-02
RMM:   8    -0.117867139950E+04   -0.33895E-05   -0.10787E-05  1536   0.457E-03    0.113E-02
RMM:   9    -0.117867139863E+04    0.87080E-06   -0.33964E-06  1217   0.288E-03
   4 F= -.11857425E+04 E0= -.11857425E+04  d E =-.459991E-03  mag=     2.0000
       N       E                     dE             d eps       ncg     rms          rms(c)
DAV:   1    -0.117867146941E+04   -0.69911E-04   -0.11540E-02  1632   0.199E-01    0.296E-02
RMM:   2    -0.117867149475E+04   -0.25335E-04   -0.31156E-04  1536   0.291E-02    0.264E-02
RMM:   3    -0.117867149836E+04   -0.36067E-05   -0.55594E-05  1758   0.119E-02    0.217E-02
RMM:   4    -0.117867149656E+04    0.17965E-05   -0.10295E-05  1412   0.489E-03    0.186E-02
RMM:   5    -0.117867149291E+04    0.36494E-05   -0.97595E-06  1512   0.425E-03    0.977E-03
RMM:   6    -0.117867149276E+04    0.15536E-06   -0.55643E-06  1450   0.327E-03
   5 F= -.11857425E+04 E0= -.11857425E+04  d E =-.498992E-03  mag=     2.0000
