       N       E                     dE             d eps       ncg     rms          rms(c)
DAV:   1     0.501205239163E+04    0.50121E+04   -0.17070E+05  1800   0.912E+02
DAV:   2    -0.286687235316E+02   -0.50407E+04   -0.46091E+04  2556   0.211E+02
DAV:   3    -0.119258021025E+04   -0.11639E+04   -0.11574E+04  2160   0.113E+02
DAV:   4    -0.123967070682E+04   -0.47090E+02   -0.46841E+02  1944   0.304E+01
DAV:   5    -0.124104919996E+04   -0.13785E+01   -0.13743E+01  2304   0.495E+00    0.719E+01
RMM:   6    -0.122148524449E+04    0.19564E+02   -0.29934E+01  1604   0.560E+00    0.600E+01
RMM:   7    -0.120557584917E+04    0.15909E+02   -0.85324E+00  1586   0.351E+00    0.459E+01
RMM:   8    -0.118207776899E+04    0.23498E+02   -0.26978E+01  1584   0.615E+00    0.298E+01
RMM:   9    -0.117057129423E+04    0.11506E+02   -0.20444E+01  1584   0.543E+00    0.209E+01
RMM:  10    -0.117024142458E+04    0.32987E+00   -0.12848E+01  1587   0.439E+00    0.115E+01
RMM:  11    -0.117119039474E+04   -0.94897E+00   -0.21292E+00  1610   0.218E+00    0.697E+00
RMM:  12    -0.117047673167E+04    0.71366E+00   -0.14419E+00  1584   0.138E+00    0.361E+00
RMM:  13    -0.117034994698E+04    0.12678E+00   -0.23046E-01  1584   0.712E-01    0.187E+00
RMM:  14    -0.117034820092E+04    0.17461E-02   -0.83441E-02  1637   0.316E-01    0.109E+00
RMM:  15    -0.117034028878E+04    0.79121E-02   -0.18595E-02  1585   0.194E-01    0.468E-01
RMM:  16    -0.117033970541E+04    0.58336E-03   -0.60904E-03  1682   0.993E-02    0.293E-01
RMM:  17    -0.117034005251E+04   -0.34709E-03   -0.15450E-03  1541   0.514E-02    0.229E-01
RMM:  18    -0.117034027906E+04   -0.22656E-03   -0.42557E-04  1234   0.312E-02    0.153E-01
RMM:  19    -0.117034024484E+04    0.34223E-04   -0.20193E-04  1085   0.201E-02
   1 F= -.11776281E+04 E0= -.11776281E+04  d E =-.117763E+04  mag=     0.9978
       N       E                     dE             d eps       ncg     rms          rms(c)
DAV:   1    -0.117033920431E+04    0.10748E-02   -0.34579E-01  1656   0.937E-01    0.215E-01
RMM:   2    -0.117033979644E+04   -0.59214E-03   -0.96479E-03  1589   0.147E-01    0.190E-01
RMM:   3    -0.117033958682E+04    0.20963E-03   -0.68939E-04  1411   0.431E-02    0.179E-01
RMM:   4    -0.117033927916E+04    0.30766E-03   -0.24859E-04  1133   0.220E-02    0.142E-01
RMM:   5    -0.117033895525E+04    0.32390E-03   -0.18046E-03  1584   0.492E-02    0.493E-02
RMM:   6    -0.117033895994E+04   -0.46914E-05   -0.68838E-05  1019   0.170E-02
   2 F= -.11776272E+04 E0= -.11776272E+04  d E =0.862210E-03  mag=     1.0003
       N       E                     dE             d eps       ncg     rms          rms(c)
DAV:   1    -0.117034094776E+04   -0.19925E-02   -0.13779E-01  1620   0.589E-01    0.127E-01
RMM:   2    -0.117034105501E+04   -0.10725E-03   -0.32326E-03  1584   0.892E-02    0.124E-01
RMM:   3    -0.117034097871E+04    0.76296E-04   -0.18447E-04  1110   0.240E-02
   3 F= -.11776290E+04 E0= -.11776290E+04  d E =-.890276E-03  mag=     1.0001
