       N       E                     dE             d eps       ncg     rms          rms(c)
DAV:   1     0.475591339487E+04    0.47559E+04   -0.18465E+05  1920   0.968E+02
DAV:   2    -0.483221722411E+02   -0.48042E+04   -0.44091E+04  2464   0.218E+02
DAV:   3    -0.120187839954E+04   -0.11536E+04   -0.11471E+04  1952   0.114E+02
DAV:   4    -0.125195127544E+04   -0.50073E+02   -0.49717E+02  1952   0.320E+01
DAV:   5    -0.125324825500E+04   -0.12970E+01   -0.12924E+01  2240   0.485E+00    0.843E+01
RMM:   6    -0.124094626596E+04    0.12302E+02   -0.11228E+02  1668   0.167E+01    0.974E+01
RMM:   7    -0.122746437420E+04    0.13482E+02   -0.16053E+01  1546   0.702E+00    0.711E+01
RMM:   8    -0.120814795905E+04    0.19316E+02   -0.20565E+01  1573   0.608E+00    0.413E+01
RMM:   9    -0.118863952785E+04    0.19508E+02   -0.22106E+01  1588   0.635E+00    0.274E+01
RMM:  10    -0.117990170923E+04    0.87378E+01   -0.13521E+01  1553   0.530E+00    0.206E+01
RMM:  11    -0.117690100766E+04    0.30007E+01   -0.17863E+01  1613   0.564E+00    0.121E+01
RMM:  12    -0.117778679755E+04   -0.88579E+00   -0.40034E+00  1586   0.314E+00    0.811E+00
RMM:  13    -0.117739824260E+04    0.38855E+00   -0.52544E-01  1553   0.144E+00    0.553E+00
RMM:  14    -0.117713862677E+04    0.25962E+00   -0.88264E-01  1546   0.126E+00    0.262E+00
RMM:  15    -0.117713916180E+04   -0.53503E-03   -0.11868E-01  1544   0.590E-01    0.190E+00
RMM:  16    -0.117714345552E+04   -0.42937E-02   -0.77808E-02  1549   0.405E-01    0.100E+00
RMM:  17    -0.117714265195E+04    0.80357E-03   -0.16044E-02  1647   0.218E-01    0.731E-01
RMM:  18    -0.117714114673E+04    0.15052E-02   -0.42962E-03  1645   0.111E-01    0.563E-01
RMM:  19    -0.117714111969E+04    0.27039E-04   -0.32683E-03  1617   0.771E-02    0.441E-01
RMM:  20    -0.117714099560E+04    0.12409E-03   -0.13490E-03  1632   0.596E-02    0.281E-01
RMM:  21    -0.117714099391E+04    0.16909E-05   -0.38405E-04  1551   0.288E-02    0.215E-01
RMM:  22    -0.117714096302E+04    0.30890E-04   -0.26161E-04  1561   0.221E-02    0.137E-01
RMM:  23    -0.117714097430E+04   -0.11282E-04   -0.12315E-04  1555   0.160E-02    0.970E-02
RMM:  24    -0.117714097744E+04   -0.31460E-05   -0.62028E-05  1621   0.107E-02    0.752E-02
RMM:  25    -0.117714097658E+04    0.86136E-06   -0.28237E-05  1568   0.766E-03    0.407E-02
RMM:  26    -0.117714098385E+04   -0.72693E-05   -0.25611E-05  1649   0.651E-03    0.198E-02
RMM:  27    -0.117714098586E+04   -0.20037E-05   -0.53145E-06  1309   0.347E-03    0.105E-02
RMM:  28    -0.117714098825E+04   -0.23921E-05   -0.11709E-06  1022   0.196E-03    0.693E-03
RMM:  29    -0.117714098923E+04   -0.98037E-06   -0.14781E-06  1034   0.178E-03
   1 F= -.11842957E+04 E0= -.11842957E+04  d E =-.118430E+04  mag=    -0.0001
       N       E                     dE             d eps       ncg     rms          rms(c)
DAV:   1    -0.117713910959E+04    0.18787E-02   -0.25174E-01  1568   0.104E+00    0.129E-01
RMM:   2    -0.117713997671E+04   -0.86712E-03   -0.99333E-03  1593   0.166E-01    0.110E-01
RMM:   3    -0.117714003569E+04   -0.58975E-04   -0.16947E-03  1784   0.649E-02    0.987E-02
RMM:   4    -0.117713991770E+04    0.11799E-03   -0.40070E-04  1626   0.304E-02    0.649E-02
RMM:   5    -0.117713991625E+04    0.14501E-05   -0.41751E-04  1580   0.273E-02    0.369E-02
RMM:   6    -0.117713992299E+04   -0.67399E-05   -0.94802E-05  1938   0.154E-02    0.321E-02
RMM:   7    -0.117713989726E+04    0.25732E-04   -0.49032E-05  1540   0.780E-03    0.221E-02
RMM:   8    -0.117713990311E+04   -0.58494E-05   -0.23000E-05  1545   0.674E-03    0.904E-03
RMM:   9    -0.117713990205E+04    0.10549E-05   -0.91249E-06  1545   0.412E-03    0.577E-03
RMM:  10    -0.117713990263E+04   -0.57743E-06   -0.66126E-06  1456   0.337E-03
   2 F= -.11842951E+04 E0= -.11842951E+04  d E =0.543589E-03  mag=    -0.0000
       N       E                     dE             d eps       ncg     rms          rms(c)
DAV:   1    -0.117714094449E+04   -0.10424E-02   -0.94198E-02  1696   0.630E-01    0.794E-02
RMM:   2    -0.117714120695E+04   -0.26246E-03   -0.31487E-03  1577   0.985E-02    0.671E-02
RMM:   3    -0.117714120743E+04   -0.47741E-06   -0.46672E-04  1684   0.374E-02    0.580E-02
RMM:   4    -0.117714116789E+04    0.39538E-04   -0.15230E-04  1625   0.191E-02    0.370E-02
RMM:   5    -0.117714116726E+04    0.63000E-06   -0.12504E-04  1600   0.153E-02    0.213E-02
RMM:   6    -0.117714116916E+04   -0.19037E-05   -0.28633E-05  1864   0.848E-03    0.181E-02
RMM:   7    -0.117714116162E+04    0.75434E-05   -0.26344E-05  1522   0.552E-03    0.116E-02
RMM:   8    -0.117714116399E+04   -0.23710E-05   -0.66146E-06  1478   0.392E-03    0.552E-03
RMM:   9    -0.117714116336E+04    0.63243E-06   -0.23029E-06  1038   0.215E-03
   3 F= -.11842960E+04 E0= -.11842960E+04  d E =-.385392E-03  mag=     0.0000
