       N       E                     dE             d eps       ncg     rms          rms(c)
DAV:   1     0.604041229986E+04    0.60404E+04   -0.15880E+05  1696   0.993E+02
DAV:   2     0.693504463522E+03   -0.53469E+04   -0.48306E+04  2600   0.259E+02
DAV:   3    -0.109232726169E+04   -0.17858E+04   -0.17338E+04  2400   0.143E+02
DAV:   4    -0.123370585988E+04   -0.14138E+03   -0.13915E+03  2152   0.483E+01
DAV:   5    -0.123855461401E+04   -0.48488E+01   -0.47755E+01  2224   0.111E+01    0.696E+01
RMM:   6    -0.121772449562E+04    0.20830E+02   -0.95197E+00  1951   0.731E+00    0.518E+01
RMM:   7    -0.119112467311E+04    0.26600E+02   -0.43042E+01  1882   0.864E+00    0.341E+01
RMM:   8    -0.117246593932E+04    0.18659E+02   -0.30632E+01  1887   0.859E+00    0.252E+01
RMM:   9    -0.116702175894E+04    0.54442E+01   -0.16060E+01  1885   0.595E+00    0.180E+01
RMM:  10    -0.116835320807E+04   -0.13314E+01   -0.13299E+01  1951   0.566E+00    0.990E+00
RMM:  11    -0.116817475970E+04    0.17845E+00   -0.16120E+00  1906   0.220E+00    0.725E+00
RMM:  12    -0.116771814660E+04    0.45661E+00   -0.10865E+00  1883   0.155E+00    0.246E+00
RMM:  13    -0.116746939198E+04    0.24875E+00   -0.34995E-01  1921   0.904E-01    0.114E+00
RMM:  14    -0.116746361695E+04    0.57750E-02   -0.15808E-01  1936   0.625E-01    0.565E-01
RMM:  15    -0.116745877217E+04    0.48448E-02   -0.22876E-02  1722   0.299E-01    0.375E-01
RMM:  16    -0.116745616921E+04    0.26030E-02   -0.70430E-03  1301   0.288E-01    0.417E-01
RMM:  17    -0.116745597124E+04    0.19796E-03   -0.27786E-03  1104   0.370E-01
   1 F= -.11746994E+04 E0= -.11746994E+04  d E =-.117470E+04  mag=     1.0255
       N       E                     dE             d eps       ncg     rms          rms(c)
DAV:   1    -0.116745591748E+04    0.25173E-03   -0.16544E-02  2200   0.611E-01    0.356E-01
RMM:   2    -0.116745584070E+04    0.76783E-04   -0.10189E-03   954   0.591E-02
   2 F= -.11746993E+04 E0= -.11746993E+04  d E =0.106044E-03  mag=     1.0233
       N       E                     dE             d eps       ncg     rms          rms(c)
DAV:   1    -0.116745601913E+04   -0.10165E-03   -0.37490E-04  1272   0.138E-01    0.392E-01
RMM:   2    -0.116745590019E+04    0.11893E-03   -0.58456E-05   911   0.424E-02
   3 F= -.11746993E+04 E0= -.11746993E+04  d E =0.458906E-04  mag=     1.0278
       N       E                     dE             d eps       ncg     rms          rms(c)
DAV:   1    -0.116745662671E+04   -0.60758E-03   -0.10909E-02  2256   0.248E-01    0.487E-01
RMM:   2    -0.116745630979E+04    0.31692E-03   -0.34744E-04   913   0.543E-02
   4 F= -.11746998E+04 E0= -.11746998E+04  d E =-.517083E-03  mag=     1.0333
