       N       E                     dE             d eps       ncg     rms          rms(c)
DAV:   1     0.484604303640E+04    0.48460E+04   -0.18205E+05  1888   0.965E+02
DAV:   2    -0.376784043029E+02   -0.48837E+04   -0.44851E+04  2432   0.216E+02
DAV:   3    -0.120265306219E+04   -0.11650E+04   -0.11578E+04  1984   0.114E+02
DAV:   4    -0.125207605857E+04   -0.49423E+02   -0.49056E+02  1952   0.311E+01
DAV:   5    -0.125329681244E+04   -0.12208E+01   -0.12150E+01  2240   0.458E+00    0.779E+01
RMM:   6    -0.123867082918E+04    0.14626E+02   -0.60427E+01  1665   0.839E+00    0.700E+01
RMM:   7    -0.122327193855E+04    0.15399E+02   -0.81431E+00  1568   0.400E+00    0.473E+01
RMM:   8    -0.120499409388E+04    0.18278E+02   -0.15886E+01  1548   0.523E+00    0.347E+01
RMM:   9    -0.118389710070E+04    0.21097E+02   -0.37867E+01  1609   0.790E+00    0.219E+01
RMM:  10    -0.118115104693E+04    0.27461E+01   -0.14622E+01  1542   0.526E+00    0.144E+01
RMM:  11    -0.118225787358E+04   -0.11068E+01   -0.52451E+00  1563   0.331E+00    0.771E+00
RMM:  12    -0.118215354741E+04    0.10433E+00   -0.80983E-01  1597   0.146E+00    0.444E+00
RMM:  13    -0.118177847810E+04    0.37507E+00   -0.56081E-01  1536   0.102E+00    0.240E+00
RMM:  14    -0.118166786498E+04    0.11061E+00   -0.34007E-01  1536   0.763E-01    0.124E+00
RMM:  15    -0.118166598253E+04    0.18824E-02   -0.36361E-02  1659   0.322E-01    0.608E-01
RMM:  16    -0.118166395501E+04    0.20275E-02   -0.40760E-02  1544   0.270E-01    0.266E-01
RMM:  17    -0.118166433400E+04   -0.37899E-03   -0.68976E-03  1584   0.131E-01    0.200E-01
RMM:  18    -0.118166434659E+04   -0.12593E-04   -0.26201E-03  1583   0.749E-02    0.128E-01
RMM:  19    -0.118166449486E+04   -0.14827E-03   -0.11429E-03  1540   0.479E-02    0.917E-02
RMM:  20    -0.118166453389E+04   -0.39032E-04   -0.28922E-04  1570   0.269E-02    0.772E-02
RMM:  21    -0.118166452474E+04    0.91543E-05   -0.13305E-04  1582   0.159E-02    0.448E-02
RMM:  22    -0.118166454418E+04   -0.19438E-04   -0.68621E-05  1598   0.112E-02    0.283E-02
RMM:  23    -0.118166455334E+04   -0.91657E-05   -0.10059E-05  1510   0.514E-03    0.274E-02
RMM:  24    -0.118166455900E+04   -0.56545E-05   -0.42341E-06  1165   0.298E-03    0.252E-02
RMM:  25    -0.118166456045E+04   -0.14484E-05   -0.11753E-05  1490   0.441E-03    0.145E-02
RMM:  26    -0.118166456353E+04   -0.30860E-05   -0.29505E-06  1153   0.256E-03    0.914E-03
RMM:  27    -0.118166456681E+04   -0.32797E-05   -0.17176E-06  1050   0.192E-03    0.461E-03
RMM:  28    -0.118166456632E+04    0.48907E-06   -0.12203E-06  1022   0.144E-03
   1 F= -.11888057E+04 E0= -.11888057E+04  d E =-.118881E+04  mag=     2.0001
       N       E                     dE             d eps       ncg     rms          rms(c)
DAV:   1    -0.118166335692E+04    0.12099E-02   -0.28513E-01  1568   0.907E-01    0.163E-01
RMM:   2    -0.118166402784E+04   -0.67093E-03   -0.88299E-03  1645   0.139E-01    0.146E-01
RMM:   3    -0.118166414538E+04   -0.11754E-03   -0.17871E-03  1785   0.570E-02    0.121E-01
RMM:   4    -0.118166414218E+04    0.31964E-05   -0.27951E-04  1685   0.242E-02    0.889E-02
RMM:   5    -0.118166419007E+04   -0.47888E-04   -0.22401E-04  1574   0.200E-02    0.461E-02
RMM:   6    -0.118166421978E+04   -0.29710E-04   -0.78980E-05  1718   0.126E-02    0.326E-02
RMM:   7    -0.118166422235E+04   -0.25715E-05   -0.22770E-05  1543   0.661E-03    0.159E-02
RMM:   8    -0.118166422606E+04   -0.37100E-05   -0.16049E-05  1552   0.486E-03    0.100E-02
RMM:   9    -0.118166422576E+04    0.30063E-06   -0.41824E-06  1342   0.287E-03
   2 F= -.11888059E+04 E0= -.11888059E+04  d E =-.214484E-03  mag=     2.0000
       N       E                     dE             d eps       ncg     rms          rms(c)
DAV:   1    -0.118166461852E+04   -0.39246E-03   -0.53466E-02  1728   0.392E-01    0.701E-02
RMM:   2    -0.118166472770E+04   -0.10918E-03   -0.15146E-03  1629   0.582E-02    0.619E-02
RMM:   3    -0.118166474252E+04   -0.14815E-04   -0.28824E-04  1686   0.233E-02    0.507E-02
RMM:   4    -0.118166474474E+04   -0.22193E-05   -0.49761E-05  1666   0.101E-02    0.369E-02
RMM:   5    -0.118166475169E+04   -0.69503E-05   -0.33205E-05  1549   0.787E-03    0.192E-02
RMM:   6    -0.118166475633E+04   -0.46413E-05   -0.13342E-05  1623   0.521E-03    0.129E-02
RMM:   7    -0.118166475718E+04   -0.84929E-06   -0.28308E-06  1094   0.257E-03
   3 F= -.11888062E+04 E0= -.11888062E+04  d E =-.505311E-03  mag=     2.0000
       N       E                     dE             d eps       ncg     rms          rms(c)
DAV:   1    -0.118166481871E+04   -0.62385E-04   -0.10246E-01  1824   0.455E-01    0.933E-02
RMM:   2    -0.118166493042E+04   -0.11171E-03   -0.21960E-03  1609   0.633E-02    0.818E-02
RMM:   3    -0.118166493949E+04   -0.90680E-05   -0.31849E-04  1657   0.248E-02    0.667E-02
RMM:   4    -0.118166497319E+04   -0.33696E-04   -0.75147E-05  1603   0.123E-02    0.429E-02
RMM:   5    -0.118166500202E+04   -0.28834E-04   -0.36064E-05  1561   0.843E-03    0.238E-02
RMM:   6    -0.118166501237E+04   -0.10350E-04   -0.12847E-05  1646   0.514E-03    0.158E-02
RMM:   7    -0.118166501600E+04   -0.36274E-05   -0.45200E-06  1150   0.297E-03    0.749E-03
RMM:   8    -0.118166501686E+04   -0.85856E-06   -0.17115E-06  1048   0.180E-03
   4 F= -.11888067E+04 E0= -.11888067E+04  d E =-.563899E-03  mag=     2.0000
       N       E                     dE             d eps       ncg     rms          rms(c)
DAV:   1    -0.118166485588E+04    0.16012E-03   -0.46025E-02  1696   0.305E-01    0.641E-02
RMM:   2    -0.118166490233E+04   -0.46456E-04   -0.10040E-03  1605   0.429E-02    0.567E-02
RMM:   3    -0.118166490695E+04   -0.46119E-05   -0.14493E-04  1659   0.168E-02    0.464E-02
RMM:   4    -0.118166493056E+04   -0.23611E-04   -0.33299E-05  1590   0.817E-03    0.298E-02
RMM:   5    -0.118166494560E+04   -0.15040E-04   -0.16437E-05  1543   0.568E-03    0.161E-02
RMM:   6    -0.118166495053E+04   -0.49335E-05   -0.53640E-06  1319   0.336E-03    0.107E-02
RMM:   7    -0.118166495211E+04   -0.15814E-05   -0.22306E-06  1055   0.202E-03    0.479E-03
RMM:   8    -0.118166495244E+04   -0.32486E-06   -0.93320E-07  1002   0.133E-03
   5 F= -.11888069E+04 E0= -.11888069E+04  d E =-.703097E-03  mag=     2.0000
       N       E                     dE             d eps       ncg     rms          rms(c)
DAV:   1    -0.118166473920E+04    0.21291E-03   -0.12534E-01  1632   0.570E-01    0.112E-01
RMM:   2    -0.118166500665E+04   -0.26745E-03   -0.45354E-03  1680   0.826E-02    0.846E-02
RMM:   3    -0.118166510807E+04   -0.10143E-03   -0.99533E-04  1704   0.336E-02    0.642E-02
RMM:   4    -0.118166514558E+04   -0.37507E-04   -0.14085E-04  1809   0.129E-02    0.528E-02
RMM:   5    -0.118166520564E+04   -0.60056E-04   -0.34946E-05  1563   0.829E-03    0.312E-02
RMM:   6    -0.118166525264E+04   -0.47007E-04   -0.29740E-05  1548   0.752E-03    0.146E-02
RMM:   7    -0.118166526261E+04   -0.99665E-05   -0.43680E-06  1177   0.337E-03    0.776E-03
RMM:   8    -0.118166526344E+04   -0.83043E-06   -0.15518E-06  1042   0.177E-03
   6 F= -.11888075E+04 E0= -.11888075E+04  d E =-.569284E-03  mag=     2.0000
       N       E                     dE             d eps       ncg     rms          rms(c)
DAV:   1    -0.118166504388E+04    0.21873E-03   -0.49232E-02  1664   0.357E-01    0.704E-02
RMM:   2    -0.118166513881E+04   -0.94928E-04   -0.17916E-03  1673   0.521E-02    0.530E-02
RMM:   3    -0.118166517964E+04   -0.40835E-04   -0.39385E-04  1696   0.212E-02    0.403E-02
RMM:   4    -0.118166519780E+04   -0.18159E-04   -0.54810E-05  1766   0.816E-03    0.332E-02
RMM:   5    -0.118166522891E+04   -0.31112E-04   -0.14570E-05  1505   0.540E-03    0.196E-02
RMM:   6    -0.118166524860E+04   -0.19688E-04   -0.11859E-05  1485   0.474E-03    0.923E-03
RMM:   7    -0.118166525241E+04   -0.38115E-05   -0.16978E-06  1057   0.212E-03    0.457E-03
RMM:   8    -0.118166525275E+04   -0.33285E-06   -0.66498E-07  1009   0.117E-03
   7 F= -.11888076E+04 E0= -.11888076E+04  d E =-.720352E-03  mag=     2.0000
       N       E                     dE             d eps       ncg     rms          rms(c)
DAV:   1    -0.118166460222E+04    0.65019E-03   -0.12049E-01  1664   0.642E-01    0.132E-01
RMM:   2    -0.118166509900E+04   -0.49678E-03   -0.71264E-03  1687   0.920E-02    0.910E-02
RMM:   3    -0.118166531985E+04   -0.22085E-03   -0.18562E-03  1711   0.372E-02    0.658E-02
RMM:   4    -0.118166535288E+04   -0.33034E-04   -0.18096E-04  1859   0.133E-02    0.574E-02
RMM:   5    -0.118166542466E+04   -0.71779E-04   -0.28293E-05  1568   0.755E-03    0.364E-02
RMM:   6    -0.118166549569E+04   -0.71025E-04   -0.35578E-05  1571   0.809E-03    0.157E-02
RMM:   7    -0.118166551165E+04   -0.15968E-04   -0.47971E-06  1206   0.347E-03    0.900E-03
RMM:   8    -0.118166551437E+04   -0.27117E-05   -0.11986E-06  1039   0.163E-03    0.701E-03
RMM:   9    -0.118166551466E+04   -0.29797E-06   -0.14163E-06  1027   0.156E-03
   8 F= -.11888081E+04 E0= -.11888081E+04  d E =-.539482E-03  mag=     2.0000
