       N       E                     dE             d eps       ncg     rms          rms(c)
DAV:   1     0.459871810935E+04    0.45987E+04   -0.17965E+05  1920   0.948E+02
DAV:   2    -0.798095256706E+02   -0.46785E+04   -0.42604E+04  2400   0.208E+02
DAV:   3    -0.120026885660E+04   -0.11205E+04   -0.11159E+04  2016   0.110E+02
DAV:   4    -0.124671037358E+04   -0.46442E+02   -0.46132E+02  1920   0.296E+01
DAV:   5    -0.124790783437E+04   -0.11975E+01   -0.11939E+01  2304   0.447E+00    0.701E+01
RMM:   6    -0.123115535166E+04    0.16752E+02   -0.93821E+00  1590   0.370E+00    0.553E+01
RMM:   7    -0.119737342567E+04    0.33782E+02   -0.62968E+01  1589   0.947E+00    0.316E+01
RMM:   8    -0.118492312131E+04    0.12450E+02   -0.21605E+01  1546   0.630E+00    0.241E+01
RMM:   9    -0.118232732267E+04    0.25958E+01   -0.26767E+01  1563   0.662E+00    0.148E+01
RMM:  10    -0.118143780211E+04    0.88952E+00   -0.70068E+00  1705   0.364E+00    0.116E+01
RMM:  11    -0.118301901813E+04   -0.15812E+01   -0.31450E+00  1572   0.224E+00    0.827E+00
RMM:  12    -0.118073172911E+04    0.22873E+01   -0.19680E+00  1545   0.175E+00    0.425E+00
RMM:  13    -0.118068411138E+04    0.47618E-01   -0.36371E-01  1554   0.845E-01    0.295E+00
RMM:  14    -0.118051320114E+04    0.17091E+00   -0.19917E-01  1677   0.495E-01    0.187E+00
RMM:  15    -0.118048650353E+04    0.26698E-01   -0.67832E-02  1603   0.293E-01    0.170E+00
RMM:  16    -0.118048554887E+04    0.95465E-03   -0.18311E-02  1968   0.151E-01    0.193E+00
RMM:  17    -0.118047115011E+04    0.14399E-01   -0.19097E-02  1568   0.161E-01    0.183E+00
RMM:  18    -0.118046286680E+04    0.82833E-02   -0.16527E-02  1593   0.143E-01    0.186E+00
RMM:  19    -0.118046443300E+04   -0.15662E-02   -0.44757E-03  2085   0.686E-02    0.210E+00
RMM:  20    -0.118045750348E+04    0.69295E-02   -0.57689E-03  1682   0.765E-02    0.184E+00
RMM:  21    -0.118045775691E+04   -0.25343E-03   -0.62356E-03  1650   0.792E-02    0.178E+00
RMM:  22    -0.118045747557E+04    0.28134E-03   -0.14922E-03  1687   0.394E-02    0.180E+00
RMM:  23    -0.118045742687E+04    0.48696E-04   -0.81684E-04  1828   0.239E-02    0.167E+00
RMM:  24    -0.118045746715E+04   -0.40279E-04   -0.49187E-04  1741   0.150E-02    0.152E+00
RMM:  25    -0.118045752271E+04   -0.55558E-04   -0.35914E-04  1757   0.933E-03    0.150E+00
RMM:  26    -0.118045762853E+04   -0.10583E-03   -0.26315E-04  1743   0.713E-03    0.160E+00
RMM:  27    -0.118045758527E+04    0.43265E-04   -0.21456E-04  1707   0.103E-02    0.153E+00
RMM:  28    -0.118045756736E+04    0.17909E-04   -0.15666E-04  1701   0.571E-03    0.155E+00
RMM:  29    -0.118045756966E+04   -0.23030E-05   -0.96763E-05  1253   0.289E-03    0.154E+00
RMM:  30    -0.118045750883E+04    0.60838E-04   -0.68558E-05  1580   0.379E-03    0.147E+00
RMM:  31    -0.118045738427E+04    0.12456E-03   -0.90772E-05  2027   0.730E-03    0.128E+00
RMM:  32    -0.118045739099E+04   -0.67205E-05   -0.43970E-05  1064   0.220E-03    0.129E+00
RMM:  33    -0.118045735511E+04    0.35874E-04   -0.35935E-05  1310   0.271E-03    0.126E+00
RMM:  34    -0.118045721779E+04    0.13732E-03   -0.70880E-05  2169   0.782E-03    0.996E-01
RMM:  35    -0.118045713868E+04    0.79111E-04   -0.48102E-05  2011   0.615E-03    0.787E-01
RMM:  36    -0.118045705798E+04    0.80707E-04   -0.53054E-05  2198   0.705E-03    0.605E-01
RMM:  37    -0.118045700788E+04    0.50098E-04   -0.36552E-05  1966   0.560E-03    0.500E-01
RMM:  38    -0.118045697640E+04    0.31482E-04   -0.24730E-05  1793   0.463E-03    0.428E-01
RMM:  39    -0.118045695503E+04    0.21366E-04   -0.19530E-05  1704   0.425E-03    0.353E-01
RMM:  40    -0.118045695442E+04    0.61306E-06   -0.61382E-06  1023   0.160E-03
   1 F= -.11877848E+04 E0= -.11877848E+04  d E =-.118778E+04  mag=     0.0005
       N       E                     dE             d eps       ncg     rms          rms(c)
DAV:   1    -0.118045397924E+04    0.29758E-02   -0.41625E-01  1600   0.106E+00    0.362E-01
RMM:   2    -0.118045497037E+04   -0.99113E-03   -0.12489E-02  1712   0.173E-01    0.306E-01
RMM:   3    -0.118045480066E+04    0.16971E-03   -0.27323E-03  1660   0.764E-02    0.201E-01
RMM:   4    -0.118045477104E+04    0.29621E-04   -0.11158E-03  1676   0.446E-02    0.122E-01
RMM:   5    -0.118045476440E+04    0.66417E-05   -0.24974E-04  1822   0.226E-02    0.484E-02
RMM:   6    -0.118045476393E+04    0.46140E-06   -0.64140E-05  1758   0.103E-02    0.251E-02
RMM:   7    -0.118045475512E+04    0.88116E-05   -0.23397E-05  1571   0.606E-03    0.147E-02
RMM:   8    -0.118045475556E+04   -0.43297E-06   -0.40133E-05  1559   0.724E-03    0.820E-03
RMM:   9    -0.118045475453E+04    0.10243E-05   -0.39206E-06  1322   0.328E-03    0.584E-03
RMM:  10    -0.118045475433E+04    0.20368E-06   -0.45526E-06  1286   0.250E-03
   2 F= -.11877840E+04 E0= -.11877840E+04  d E =0.884797E-03  mag=     0.0000
       N       E                     dE             d eps       ncg     rms          rms(c)
DAV:   1    -0.118045672576E+04   -0.19712E-02   -0.16090E-01  1792   0.659E-01    0.166E-01
RMM:   2    -0.118045706281E+04   -0.33705E-03   -0.43127E-03  1700   0.105E-01    0.144E-01
RMM:   3    -0.118045701426E+04    0.48549E-04   -0.84164E-04  1646   0.441E-02    0.109E-01
RMM:   4    -0.118045701038E+04    0.38870E-05   -0.67580E-04  1556   0.336E-02    0.424E-02
RMM:   5    -0.118045697778E+04    0.32596E-04   -0.85381E-05  1618   0.146E-02    0.302E-02
RMM:   6    -0.118045697657E+04    0.12122E-05   -0.52750E-05  1579   0.830E-03    0.133E-02
RMM:   7    -0.118045697562E+04    0.95394E-06   -0.73161E-06  1361   0.358E-03
   3 F= -.11877854E+04 E0= -.11877854E+04  d E =-.517588E-03  mag=    -0.0000
       N       E                     dE             d eps       ncg     rms          rms(c)
DAV:   1    -0.118045685581E+04    0.12076E-03   -0.28650E-01  1792   0.817E-01    0.145E-01
RMM:   2    -0.118045737587E+04   -0.52006E-03   -0.64016E-03  1740   0.116E-01    0.114E-01
RMM:   3    -0.118045739895E+04   -0.23089E-04   -0.11101E-03  1627   0.479E-02    0.871E-02
RMM:   4    -0.118045737772E+04    0.21230E-04   -0.44876E-04  1584   0.289E-02    0.341E-02
RMM:   5    -0.118045738719E+04   -0.94703E-05   -0.91311E-05  1764   0.136E-02    0.254E-02
RMM:   6    -0.118045738375E+04    0.34487E-05   -0.31095E-05  1545   0.676E-03    0.140E-02
RMM:   7    -0.118045738646E+04   -0.27171E-05   -0.62834E-06  1415   0.349E-03    0.101E-02
RMM:   8    -0.118045738486E+04    0.16047E-05   -0.54755E-06  1468   0.290E-03    0.528E-03
RMM:   9    -0.118045738493E+04   -0.72097E-07   -0.36515E-06  1238   0.235E-03
   4 F= -.11877860E+04 E0= -.11877860E+04  d E =-.677915E-03  mag=    -0.0000
       N       E                     dE             d eps       ncg     rms          rms(c)
DAV:   1    -0.118045740114E+04   -0.16278E-04   -0.97361E-04  1760   0.477E-02    0.855E-03
RMM:   2    -0.118045740289E+04   -0.17579E-05   -0.21358E-05  1732   0.684E-03    0.667E-03
RMM:   3    -0.118045740288E+04    0.18808E-07   -0.36753E-06  1158   0.284E-03
   5 F= -.11877860E+04 E0= -.11877860E+04  d E =-.680055E-03  mag=     0.0000
       N       E                     dE             d eps       ncg     rms          rms(c)
DAV:   1    -0.118045750602E+04   -0.10312E-03   -0.12332E-01  1664   0.509E-01    0.964E-02
RMM:   2    -0.118045766733E+04   -0.16131E-03   -0.20628E-03  1664   0.652E-02    0.750E-02
RMM:   3    -0.118045767069E+04   -0.33640E-05   -0.33679E-04  1610   0.272E-02    0.568E-02
RMM:   4    -0.118045767358E+04   -0.28906E-05   -0.13609E-04  1598   0.161E-02    0.238E-02
RMM:   5    -0.118045767821E+04   -0.46332E-05   -0.29306E-05  1707   0.752E-03    0.178E-02
RMM:   6    -0.118045767682E+04    0.13978E-05   -0.13283E-05  1490   0.416E-03    0.108E-02
RMM:   7    -0.118045767752E+04   -0.70128E-06   -0.20921E-06  1070   0.199E-03
   6 F= -.11877865E+04 E0= -.11877865E+04  d E =-.513261E-03  mag=    -0.0000
