       N       E                     dE             d eps       ncg     rms          rms(c)
DAV:   1     0.472540771664E+04    0.47254E+04   -0.18127E+05  1888   0.955E+02
DAV:   2    -0.693780502385E+02   -0.47948E+04   -0.43859E+04  2400   0.217E+02
DAV:   3    -0.119915705154E+04   -0.11298E+04   -0.11236E+04  1952   0.113E+02
DAV:   4    -0.124793389564E+04   -0.48777E+02   -0.48448E+02  1952   0.318E+01
DAV:   5    -0.124924006146E+04   -0.13062E+01   -0.13021E+01  2304   0.493E+00    0.849E+01
RMM:   6    -0.123773623725E+04    0.11504E+02   -0.11343E+02  1635   0.165E+01    0.971E+01
RMM:   7    -0.122281803331E+04    0.14918E+02   -0.15319E+01  1543   0.676E+00    0.671E+01
RMM:   8    -0.120268770474E+04    0.20130E+02   -0.17197E+01  1574   0.573E+00    0.400E+01
RMM:   9    -0.118573783151E+04    0.16950E+02   -0.19431E+01  1560   0.578E+00    0.289E+01
RMM:  10    -0.117282762477E+04    0.12910E+02   -0.24909E+01  1609   0.658E+00    0.190E+01
RMM:  11    -0.117208235695E+04    0.74527E+00   -0.88699E+00  1539   0.447E+00    0.117E+01
RMM:  12    -0.117256191872E+04   -0.47956E+00   -0.35714E+00  1564   0.285E+00    0.815E+00
RMM:  13    -0.117240681514E+04    0.15510E+00   -0.59929E-01  1614   0.151E+00    0.514E+00
RMM:  14    -0.117225826934E+04    0.14855E+00   -0.17160E-01  1551   0.665E-01    0.329E+00
RMM:  15    -0.117207238858E+04    0.18588E+00   -0.53146E-01  1546   0.934E-01    0.127E+00
RMM:  16    -0.117207832245E+04   -0.59339E-02   -0.67164E-02  1557   0.459E-01    0.689E-01
RMM:  17    -0.117207858184E+04   -0.25939E-03   -0.16741E-02  1574   0.225E-01    0.391E-01
RMM:  18    -0.117207981190E+04   -0.12301E-02   -0.55838E-03  1661   0.123E-01    0.369E-01
RMM:  19    -0.117207986458E+04   -0.52674E-04   -0.14270E-03  1603   0.722E-02    0.223E-01
RMM:  20    -0.117207999564E+04   -0.13106E-03   -0.11543E-03  1568   0.439E-02    0.186E-01
RMM:  21    -0.117208006152E+04   -0.65882E-04   -0.29914E-04  1544   0.280E-02    0.129E-01
RMM:  22    -0.117208009192E+04   -0.30405E-04   -0.15202E-04  1544   0.175E-02    0.705E-02
RMM:  23    -0.117208011143E+04   -0.19503E-04   -0.45011E-05  1648   0.105E-02    0.507E-02
RMM:  24    -0.117208009810E+04    0.13323E-04   -0.37393E-05  1539   0.853E-03    0.292E-02
RMM:  25    -0.117208009737E+04    0.73108E-06   -0.13583E-05  1529   0.522E-03    0.161E-02
RMM:  26    -0.117208009762E+04   -0.24555E-06   -0.45008E-06  1205   0.304E-03
   1 F= -.11791820E+04 E0= -.11791820E+04  d E =-.117918E+04  mag=     1.0003
       N       E                     dE             d eps       ncg     rms          rms(c)
DAV:   1    -0.117207750012E+04    0.25973E-02   -0.33279E-01  1696   0.151E+00    0.168E-01
RMM:   2    -0.117207990701E+04   -0.24069E-02   -0.25732E-02  1600   0.245E-01    0.121E-01
RMM:   3    -0.117208013704E+04   -0.23003E-03   -0.35369E-03  1765   0.899E-02    0.105E-01
RMM:   4    -0.117208010776E+04    0.29283E-04   -0.58856E-04  1830   0.340E-02    0.906E-02
RMM:   5    -0.117208003071E+04    0.77046E-04   -0.50863E-04  1551   0.284E-02    0.412E-02
RMM:   6    -0.117208004689E+04   -0.16174E-04   -0.14645E-04  1643   0.177E-02    0.319E-02
RMM:   7    -0.117208003783E+04    0.90584E-05   -0.19157E-05  1555   0.806E-03    0.213E-02
RMM:   8    -0.117208003779E+04    0.41182E-07   -0.38301E-05  1537   0.693E-03    0.113E-02
RMM:   9    -0.117208003831E+04   -0.52268E-06   -0.48792E-06  1411   0.379E-03
   2 F= -.11791825E+04 E0= -.11791825E+04  d E =-.449373E-03  mag=     1.0000
       N       E                     dE             d eps       ncg     rms          rms(c)
DAV:   1    -0.117208022161E+04   -0.18382E-03   -0.51867E-02  1728   0.594E-01    0.668E-02
RMM:   2    -0.117208056850E+04   -0.34688E-03   -0.37542E-03  1583   0.941E-02    0.473E-02
RMM:   3    -0.117208059591E+04   -0.27411E-04   -0.47842E-04  1731   0.338E-02    0.407E-02
RMM:   4    -0.117208058896E+04    0.69506E-05   -0.84701E-05  1752   0.129E-02    0.339E-02
RMM:   5    -0.117208057686E+04    0.12099E-04   -0.77030E-05  1548   0.112E-02    0.146E-02
RMM:   6    -0.117208057841E+04   -0.15530E-05   -0.18508E-05  1652   0.646E-03    0.101E-02
RMM:   7    -0.117208057722E+04    0.11921E-05   -0.31078E-06  1169   0.290E-03    0.666E-03
RMM:   8    -0.117208057723E+04   -0.10812E-07   -0.19881E-06  1037   0.209E-03
   3 F= -.11791828E+04 E0= -.11791828E+04  d E =-.786447E-03  mag=     1.0000
