       N       E                     dE             d eps       ncg     rms          rms(c)
DAV:   1     0.515574458142E+04    0.51557E+04   -0.16827E+05  1800   0.909E+02
DAV:   2     0.420720733084E+02   -0.51137E+04   -0.46413E+04  2520   0.216E+02
DAV:   3    -0.117097789177E+04   -0.12130E+04   -0.12062E+04  2160   0.116E+02
DAV:   4    -0.122607962876E+04   -0.55102E+02   -0.54702E+02  2052   0.334E+01
DAV:   5    -0.122834531959E+04   -0.22657E+01   -0.22593E+01  2592   0.631E+00    0.597E+01
RMM:   6    -0.121583572535E+04    0.12510E+02   -0.60259E+00  1757   0.324E+00    0.486E+01
RMM:   7    -0.117391575608E+04    0.41920E+02   -0.56613E+01  1914   0.975E+00    0.281E+01
RMM:   8    -0.116315131806E+04    0.10764E+02   -0.46088E+01  1904   0.107E+01    0.129E+01
RMM:   9    -0.116483764101E+04   -0.16863E+01   -0.77644E+00  1916   0.753E+00    0.952E+00
RMM:  10    -0.116425384822E+04    0.58379E+00   -0.16272E+00  1930   0.330E+00    0.433E+00
RMM:  11    -0.116393679346E+04    0.31705E+00   -0.10559E+00  1886   0.180E+00    0.194E+00
RMM:  12    -0.116391568142E+04    0.21112E-01   -0.19341E-01  1969   0.105E+00    0.797E-01
RMM:  13    -0.116390886548E+04    0.68159E-02   -0.88338E-02  2082   0.437E-01    0.374E-01
RMM:  14    -0.116390796759E+04    0.89789E-03   -0.11008E-02  2029   0.139E-01    0.257E-01
RMM:  15    -0.116390805111E+04   -0.83511E-04   -0.45129E-03  2003   0.887E-02    0.151E-01
RMM:  16    -0.116390798831E+04    0.62792E-04   -0.98596E-04  1646   0.508E-02
   1 F= -.11714948E+04 E0= -.11714808E+04  d E =-.117149E+04  mag=    -0.1886
       N       E                     dE             d eps       ncg     rms          rms(c)
DAV:   1    -0.116390703758E+04    0.10135E-02   -0.22238E-01  1800   0.795E-01    0.147E-01
RMM:   2    -0.116390771989E+04   -0.68231E-03   -0.86588E-03  1953   0.136E-01    0.125E-01
RMM:   3    -0.116390772253E+04   -0.26423E-05   -0.63578E-04  1324   0.724E-02
   2 F= -.11714948E+04 E0= -.11714808E+04  d E =0.995818E-04  mag=    -0.1651
       N       E                     dE             d eps       ncg     rms          rms(c)
DAV:   1    -0.116390843102E+04   -0.71114E-03   -0.74884E-02  2088   0.455E-01    0.659E-02
RMM:   2    -0.116390863370E+04   -0.20267E-03   -0.26238E-03  1790   0.773E-02    0.517E-02
RMM:   3    -0.116390862187E+04    0.11823E-04   -0.17023E-04  1097   0.497E-02
   3 F= -.11714956E+04 E0= -.11714815E+04  d E =-.708044E-03  mag=    -0.1589
