       N       E                     dE             d eps       ncg     rms          rms(c)
DAV:   1     0.486401577797E+04    0.48640E+04   -0.18147E+05  1908   0.937E+02
DAV:   2    -0.757232578296E+02   -0.49397E+04   -0.45397E+04  2592   0.211E+02
DAV:   3    -0.119878332999E+04   -0.11231E+04   -0.11172E+04  2016   0.109E+02
DAV:   4    -0.124499791084E+04   -0.46215E+02   -0.45911E+02  2016   0.296E+01
DAV:   5    -0.124617943063E+04   -0.11815E+01   -0.11781E+01  2340   0.433E+00    0.684E+01
RMM:   6    -0.123408809757E+04    0.12091E+02   -0.42727E+01  1591   0.631E+00    0.597E+01
RMM:   7    -0.121894851129E+04    0.15140E+02   -0.59298E+00  1586   0.280E+00    0.460E+01
RMM:   8    -0.119629256897E+04    0.22656E+02   -0.23557E+01  1584   0.568E+00    0.320E+01
RMM:   9    -0.118035934197E+04    0.15933E+02   -0.24638E+01  1584   0.574E+00    0.220E+01
RMM:  10    -0.117885980349E+04    0.14995E+01   -0.18260E+01  1584   0.492E+00    0.126E+01
RMM:  11    -0.117931196060E+04   -0.45216E+00   -0.35377E+00  1591   0.226E+00    0.753E+00
RMM:  12    -0.117880518428E+04    0.50678E+00   -0.60419E-01  1595   0.820E-01    0.590E+00
RMM:  13    -0.117836014363E+04    0.44504E+00   -0.12555E+00  1584   0.128E+00    0.212E+00
RMM:  14    -0.117832365920E+04    0.36484E-01   -0.20711E-01  1585   0.529E-01    0.103E+00
RMM:  15    -0.117831194101E+04    0.11718E-01   -0.31759E-02  1610   0.189E-01    0.518E-01
RMM:  16    -0.117831275169E+04   -0.81068E-03   -0.93558E-03  1590   0.114E-01    0.325E-01
RMM:  17    -0.117831190004E+04    0.85165E-03   -0.32422E-03  1583   0.659E-02    0.207E-01
RMM:  18    -0.117831178899E+04    0.11104E-03   -0.14850E-03  1556   0.446E-02    0.136E-01
RMM:  19    -0.117831202338E+04   -0.23439E-03   -0.78968E-04  1582   0.342E-02    0.101E-01
RMM:  20    -0.117831197483E+04    0.48555E-04   -0.15373E-04  1029   0.163E-02
   1 F= -.11855387E+04 E0= -.11855387E+04  d E =-.118554E+04  mag=    -0.9983
       N       E                     dE             d eps       ncg     rms          rms(c)
DAV:   1    -0.117830335672E+04    0.86667E-02   -0.26417E+00  1620   0.267E+00    0.651E-01
RMM:   2    -0.117831351426E+04   -0.10158E-01   -0.11913E-01  1595   0.434E-01    0.685E-01
RMM:   3    -0.117831113292E+04    0.23813E-02   -0.51175E-03  1814   0.843E-02    0.673E-01
RMM:   4    -0.117831026914E+04    0.86377E-03   -0.12254E-03  1570   0.411E-02    0.507E-01
RMM:   5    -0.117831002787E+04    0.24127E-03   -0.64864E-03  1584   0.940E-02    0.145E-01
RMM:   6    -0.117830994330E+04    0.84565E-04   -0.15230E-04  1077   0.180E-02
   2 F= -.11855376E+04 E0= -.11855376E+04  d E =0.109964E-02  mag=    -0.9998
       N       E                     dE             d eps       ncg     rms          rms(c)
DAV:   1    -0.117831377510E+04   -0.37472E-02   -0.71603E-01  1728   0.139E+00    0.334E-01
RMM:   2    -0.117831619215E+04   -0.24170E-02   -0.30134E-02  1591   0.220E-01    0.360E-01
RMM:   3    -0.117831552434E+04    0.66781E-03   -0.11341E-03  1382   0.413E-02    0.361E-01
RMM:   4    -0.117831544178E+04    0.82560E-04   -0.13691E-04  1057   0.147E-02
   3 F= -.11855426E+04 E0= -.11855426E+04  d E =-.391930E-02  mag=    -0.9998
       N       E                     dE             d eps       ncg     rms          rms(c)
DAV:   1    -0.117831012410E+04    0.54002E-02   -0.97699E-01  1620   0.167E+00    0.324E-01
RMM:   2    -0.117831228006E+04   -0.21560E-02   -0.33285E-02  1592   0.268E-01    0.307E-01
RMM:   3    -0.117831119551E+04    0.10845E-02   -0.13252E-03  1614   0.497E-02    0.280E-01
RMM:   4    -0.117830925848E+04    0.19370E-02   -0.70841E-03  1584   0.938E-02    0.124E-01
RMM:   5    -0.117830916915E+04    0.89333E-04   -0.30351E-04  1164   0.240E-02
   4 F= -.11855362E+04 E0= -.11855362E+04  d E =0.644860E-02  mag=    -0.9998
       N       E                     dE             d eps       ncg     rms          rms(c)
DAV:   1    -0.117831591056E+04   -0.66521E-02   -0.59126E-01  1692   0.129E+00    0.232E-01
RMM:   2    -0.117831723729E+04   -0.13267E-02   -0.19986E-02  1594   0.210E-01    0.207E-01
RMM:   3    -0.117831651799E+04    0.71930E-03   -0.81254E-04  1421   0.394E-02    0.181E-01
RMM:   4    -0.117831551134E+04    0.10066E-02   -0.43404E-03  1584   0.735E-02    0.713E-02
RMM:   5    -0.117831548273E+04    0.28608E-04   -0.99302E-05  1033   0.157E-02
   5 F= -.11855426E+04 E0= -.11855426E+04  d E =0.321283E-05  mag=    -0.9998
