       N       E                     dE             d eps       ncg     rms          rms(c)
DAV:   1     0.500561658747E+04    0.50056E+04   -0.17700E+05  1872   0.926E+02
DAV:   2    -0.297422379386E+02   -0.50354E+04   -0.46128E+04  2520   0.210E+02
DAV:   3    -0.119330587240E+04   -0.11636E+04   -0.11578E+04  2088   0.111E+02
DAV:   4    -0.124077192677E+04   -0.47466E+02   -0.47197E+02  2016   0.296E+01
DAV:   5    -0.124199451032E+04   -0.12226E+01   -0.12183E+01  2304   0.435E+00    0.686E+01
RMM:   6    -0.122869881510E+04    0.13296E+02   -0.39670E+01  1603   0.585E+00    0.595E+01
RMM:   7    -0.121374534959E+04    0.14953E+02   -0.58236E+00  1586   0.279E+00    0.461E+01
RMM:   8    -0.118989424244E+04    0.23851E+02   -0.26968E+01  1584   0.604E+00    0.309E+01
RMM:   9    -0.117569691998E+04    0.14197E+02   -0.23149E+01  1584   0.553E+00    0.217E+01
RMM:  10    -0.117610931591E+04   -0.41240E+00   -0.24106E+01  1584   0.559E+00    0.130E+01
RMM:  11    -0.117498775259E+04    0.11216E+01   -0.23932E+00  1627   0.178E+00    0.721E+00
RMM:  12    -0.117477759411E+04    0.21016E+00   -0.13714E-01  1623   0.433E-01    0.576E+00
RMM:  13    -0.117421355297E+04    0.56404E+00   -0.22654E+00  1584   0.170E+00    0.165E+00
RMM:  14    -0.117418451166E+04    0.29041E-01   -0.46277E-02  1616   0.284E-01    0.126E+00
RMM:  15    -0.117417753300E+04    0.69787E-02   -0.18067E-02  1585   0.138E-01    0.911E-01
RMM:  16    -0.117417917523E+04   -0.16422E-02   -0.18281E-02  1584   0.159E-01    0.528E-01
RMM:  17    -0.117417742998E+04    0.17452E-02   -0.38214E-03  1584   0.732E-02    0.383E-01
RMM:  18    -0.117417691822E+04    0.51176E-03   -0.18432E-03  1581   0.470E-02    0.208E-01
RMM:  19    -0.117417716712E+04   -0.24890E-03   -0.36212E-04  1154   0.242E-02    0.125E-01
RMM:  20    -0.117417714968E+04    0.17445E-04   -0.86972E-05  1011   0.124E-02
   1 F= -.11813539E+04 E0= -.11813539E+04  d E =-.118135E+04  mag=     0.0054
       N       E                     dE             d eps       ncg     rms          rms(c)
DAV:   1    -0.117416678210E+04    0.10385E-01   -0.35947E+00  1584   0.295E+00    0.884E-01
RMM:   2    -0.117417719207E+04   -0.10410E-01   -0.12105E-01  1601   0.453E-01    0.894E-01
RMM:   3    -0.117417580209E+04    0.13900E-02   -0.64739E-03  1758   0.898E-02    0.881E-01
RMM:   4    -0.117417405559E+04    0.17465E-02   -0.21648E-03  1591   0.544E-02    0.646E-01
RMM:   5    -0.117417387421E+04    0.18137E-03   -0.11664E-02  1584   0.125E-01    0.177E-01
RMM:   6    -0.117417374111E+04    0.13310E-03   -0.39356E-04  1241   0.265E-02    0.163E-01
RMM:   7    -0.117417315479E+04    0.58632E-03   -0.11651E-03  1495   0.356E-02    0.794E-02
RMM:   8    -0.117417330894E+04   -0.15415E-03   -0.11394E-04  1027   0.127E-02    0.103E-01
RMM:   9    -0.117417308940E+04    0.21954E-03   -0.41657E-04  1253   0.232E-02    0.343E-02
RMM:  10    -0.117417307595E+04    0.13452E-04   -0.12913E-04  1017   0.139E-02
   2 F= -.11813510E+04 E0= -.11813510E+04  d E =0.290834E-02  mag=    -0.0000
       N       E                     dE             d eps       ncg     rms          rms(c)
DAV:   1    -0.117417901426E+04   -0.59249E-02   -0.11754E+00  1620   0.168E+00    0.511E-01
RMM:   2    -0.117418211030E+04   -0.30960E-02   -0.37605E-02  1596   0.255E-01    0.518E-01
RMM:   3    -0.117418163856E+04    0.47174E-03   -0.18973E-03  1482   0.493E-02    0.511E-01
RMM:   4    -0.117418105691E+04    0.58166E-03   -0.59882E-04  1366   0.297E-02    0.393E-01
RMM:   5    -0.117418099155E+04    0.65360E-04   -0.49408E-03  1584   0.811E-02    0.107E-01
RMM:   6    -0.117418090584E+04    0.85702E-04   -0.12244E-04  1058   0.157E-02
   3 F= -.11813582E+04 E0= -.11813582E+04  d E =-.426931E-02  mag=     0.0000
       N       E                     dE             d eps       ncg     rms          rms(c)
DAV:   1    -0.117418143250E+04   -0.44095E-03   -0.96596E-01  1656   0.157E+00    0.393E-01
RMM:   2    -0.117418310678E+04   -0.16743E-02   -0.30180E-02  1600   0.232E-01    0.364E-01
RMM:   3    -0.117418179108E+04    0.13157E-02   -0.12796E-03  1541   0.464E-02    0.322E-01
RMM:   4    -0.117418038212E+04    0.14090E-02   -0.85080E-03  1584   0.103E-01    0.904E-02
RMM:   5    -0.117418035780E+04    0.24322E-04   -0.21386E-04  1103   0.208E-02
   4 F= -.11813579E+04 E0= -.11813579E+04  d E =0.360882E-03  mag=     0.0000
       N       E                     dE             d eps       ncg     rms          rms(c)
DAV:   1    -0.117418237617E+04   -0.19940E-02   -0.26167E-01  1728   0.813E-01    0.195E-01
RMM:   2    -0.117418273460E+04   -0.35843E-03   -0.77866E-03  1602   0.117E-01    0.180E-01
RMM:   3    -0.117418233376E+04    0.40084E-03   -0.32713E-04  1156   0.243E-02    0.158E-01
RMM:   4    -0.117418190327E+04    0.43049E-03   -0.27664E-03  1584   0.588E-02    0.469E-02
RMM:   5    -0.117418188763E+04    0.15638E-04   -0.44315E-05   986   0.106E-02
   5 F= -.11813593E+04 E0= -.11813593E+04  d E =-.107139E-02  mag=     0.0000
       N       E                     dE             d eps       ncg     rms          rms(c)
DAV:   1    -0.117418189977E+04    0.34988E-05   -0.29885E-01  1728   0.853E-01    0.135E-01
RMM:   2    -0.117418238345E+04   -0.48368E-03   -0.76663E-03  1590   0.122E-01    0.124E-01
RMM:   3    -0.117418217484E+04    0.20861E-03   -0.27159E-04  1172   0.234E-02    0.114E-01
RMM:   4    -0.117418197187E+04    0.20297E-03   -0.16781E-03  1576   0.458E-02    0.390E-02
RMM:   5    -0.117418194232E+04    0.29547E-04   -0.30182E-05   998   0.889E-03
   6 F= -.11813596E+04 E0= -.11813596E+04  d E =-.310333E-03  mag=     0.0000
       N       E                     dE             d eps       ncg     rms          rms(c)
DAV:   1    -0.117418227423E+04   -0.30236E-03   -0.44266E-02  1656   0.328E-01    0.459E-02
RMM:   2    -0.117418234986E+04   -0.75624E-04   -0.10374E-03  1416   0.442E-02    0.414E-02
RMM:   3    -0.117418231737E+04    0.32485E-04   -0.41407E-05   970   0.103E-02
   7 F= -.11813599E+04 E0= -.11813599E+04  d E =-.586254E-03  mag=    -0.0000
