       N       E                     dE             d eps       ncg     rms          rms(c)
DAV:   1     0.491732999631E+04    0.49173E+04   -0.17544E+05  1872   0.919E+02
DAV:   2    -0.661244268387E+02   -0.49835E+04   -0.45580E+04  2520   0.208E+02
DAV:   3    -0.119699073863E+04   -0.11309E+04   -0.11256E+04  2088   0.109E+02
DAV:   4    -0.124255673740E+04   -0.45566E+02   -0.45346E+02  2052   0.292E+01
DAV:   5    -0.124371755324E+04   -0.11608E+01   -0.11580E+01  2340   0.432E+00    0.673E+01
RMM:   6    -0.122757125965E+04    0.16146E+02   -0.33862E+01  1588   0.547E+00    0.557E+01
RMM:   7    -0.121368636491E+04    0.13885E+02   -0.75899E+00  1584   0.301E+00    0.429E+01
RMM:   8    -0.119029337431E+04    0.23393E+02   -0.22948E+01  1584   0.550E+00    0.294E+01
RMM:   9    -0.117495503979E+04    0.15338E+02   -0.26854E+01  1584   0.590E+00    0.196E+01
RMM:  10    -0.117552267608E+04   -0.56764E+00   -0.22448E+01  1584   0.534E+00    0.915E+00
RMM:  11    -0.117503582107E+04    0.48686E+00   -0.15039E+00  1630   0.139E+00    0.650E+00
RMM:  12    -0.117480843238E+04    0.22739E+00   -0.72875E-01  1584   0.881E-01    0.453E+00
RMM:  13    -0.117424150143E+04    0.56693E+00   -0.86589E-01  1584   0.998E-01    0.194E+00
RMM:  14    -0.117418435364E+04    0.57148E-01   -0.14942E-01  1604   0.398E-01    0.987E-01
RMM:  15    -0.117418418380E+04    0.16985E-03   -0.99503E-03  1653   0.119E-01    0.821E-01
RMM:  16    -0.117418198835E+04    0.21954E-02   -0.20971E-03  1551   0.496E-02    0.654E-01
RMM:  17    -0.117417812057E+04    0.38678E-02   -0.36568E-03  1584   0.644E-02    0.370E-01
RMM:  18    -0.117417758596E+04    0.53460E-03   -0.70907E-04  1258   0.269E-02    0.252E-01
RMM:  19    -0.117417739290E+04    0.19306E-03   -0.28695E-04  1170   0.206E-02    0.128E-01
RMM:  20    -0.117417730113E+04    0.91771E-04   -0.28334E-04  1162   0.180E-02
   1 F= -.11813811E+04 E0= -.11813811E+04  d E =-.118138E+04  mag=     0.0010
       N       E                     dE             d eps       ncg     rms          rms(c)
DAV:   1    -0.117417380532E+04    0.35876E-02   -0.19176E+00  1620   0.215E+00    0.532E-01
RMM:   2    -0.117418239833E+04   -0.85930E-02   -0.10188E-01  1588   0.363E-01    0.502E-01
RMM:   3    -0.117417987693E+04    0.25214E-02   -0.32906E-03  1691   0.673E-02    0.465E-01
RMM:   4    -0.117417885341E+04    0.10235E-02   -0.38970E-03  1584   0.671E-02    0.201E-01
RMM:   5    -0.117417910364E+04   -0.25022E-03   -0.13273E-03  1584   0.406E-02    0.877E-02
RMM:   6    -0.117417890658E+04    0.19706E-03   -0.15286E-04  1055   0.137E-02    0.590E-02
RMM:   7    -0.117417885321E+04    0.53367E-04   -0.36603E-04  1330   0.199E-02
   2 F= -.11813830E+04 E0= -.11813830E+04  d E =-.191393E-02  mag=     0.0000
       N       E                     dE             d eps       ncg     rms          rms(c)
DAV:   1    -0.117417960896E+04   -0.70239E-03   -0.31242E-01  1656   0.870E-01    0.218E-01
RMM:   2    -0.117418089775E+04   -0.12888E-02   -0.15939E-02  1587   0.145E-01    0.209E-01
RMM:   3    -0.117418046346E+04    0.43429E-03   -0.45673E-04  1161   0.260E-02    0.194E-01
RMM:   4    -0.117418025401E+04    0.20945E-03   -0.79618E-04  1536   0.310E-02    0.792E-02
RMM:   5    -0.117418028749E+04   -0.33484E-04   -0.18451E-04  1068   0.164E-02
   3 F= -.11813843E+04 E0= -.11813843E+04  d E =-.320250E-02  mag=    -0.0000
       N       E                     dE             d eps       ncg     rms          rms(c)
DAV:   1    -0.117417979051E+04    0.46350E-03   -0.13741E+00  1656   0.175E+00    0.394E-01
RMM:   2    -0.117418387694E+04   -0.40864E-02   -0.50389E-02  1588   0.268E-01    0.347E-01
RMM:   3    -0.117418219725E+04    0.16797E-02   -0.16356E-03  1507   0.509E-02    0.295E-01
RMM:   4    -0.117418124998E+04    0.94728E-03   -0.58212E-03  1584   0.821E-02    0.841E-02
RMM:   5    -0.117418122902E+04    0.20956E-04   -0.18425E-04  1098   0.185E-02
   4 F= -.11813856E+04 E0= -.11813856E+04  d E =-.127308E-02  mag=    -0.0000
       N       E                     dE             d eps       ncg     rms          rms(c)
DAV:   1    -0.117418190479E+04   -0.65482E-03   -0.21588E-01  1728   0.693E-01    0.145E-01
RMM:   2    -0.117418246429E+04   -0.55949E-03   -0.77086E-03  1592   0.103E-01    0.129E-01
RMM:   3    -0.117418216296E+04    0.30133E-03   -0.23346E-04  1070   0.200E-02    0.111E-01
RMM:   4    -0.117418194701E+04    0.21595E-03   -0.13022E-03  1584   0.394E-02    0.317E-02
RMM:   5    -0.117418194593E+04    0.10741E-05   -0.33205E-05   980   0.843E-03
   5 F= -.11813862E+04 E0= -.11813862E+04  d E =-.185884E-02  mag=    -0.0000
       N       E                     dE             d eps       ncg     rms          rms(c)
DAV:   1    -0.117418092863E+04    0.10184E-02   -0.64753E-01  1728   0.130E+00    0.192E-01
RMM:   2    -0.117418369687E+04   -0.27682E-02   -0.30945E-02  1596   0.209E-01    0.158E-01
RMM:   3    -0.117418279042E+04    0.90646E-03   -0.97034E-04  1300   0.398E-02    0.138E-01
RMM:   4    -0.117418255758E+04    0.23284E-03   -0.12561E-03  1554   0.388E-02    0.563E-02
RMM:   5    -0.117418255410E+04    0.34755E-05   -0.10369E-04  1042   0.134E-02
   6 F= -.11813874E+04 E0= -.11813874E+04  d E =-.120825E-02  mag=     0.0000
       N       E                     dE             d eps       ncg     rms          rms(c)
DAV:   1    -0.117418269682E+04   -0.13924E-03   -0.19865E-02  1728   0.227E-01    0.364E-02
RMM:   2    -0.117418277296E+04   -0.76142E-04   -0.89815E-04  1165   0.357E-02
   7 F= -.11813875E+04 E0= -.11813875E+04  d E =-.132263E-02  mag=     0.0000
       N       E                     dE             d eps       ncg     rms          rms(c)
DAV:   1    -0.117418272041E+04   -0.23594E-04   -0.20359E-01  1728   0.743E-01    0.939E-02
RMM:   2    -0.117418377471E+04   -0.10543E-02   -0.11310E-02  1602   0.122E-01    0.714E-02
RMM:   3    -0.117418346271E+04    0.31200E-03   -0.32634E-04  1094   0.233E-02    0.633E-02
RMM:   4    -0.117418347247E+04   -0.97567E-05   -0.22095E-04  1085   0.181E-02
   8 F= -.11813885E+04 E0= -.11813885E+04  d E =-.986241E-03  mag=    -0.0000
       N       E                     dE             d eps       ncg     rms          rms(c)
DAV:   1    -0.117418197144E+04    0.14913E-02   -0.44007E-01  1728   0.109E+00    0.154E-01
RMM:   2    -0.117418420540E+04   -0.22340E-02   -0.24088E-02  1600   0.178E-01    0.123E-01
RMM:   3    -0.117418357493E+04    0.63047E-03   -0.74134E-04  1248   0.342E-02    0.109E-01
RMM:   4    -0.117418361573E+04   -0.40802E-04   -0.63086E-04  1417   0.284E-02
   9 F= -.11813891E+04 E0= -.11813891E+04  d E =-.155204E-02  mag=     0.0000
       N       E                     dE             d eps       ncg     rms          rms(c)
DAV:   1    -0.117418454606E+04   -0.97113E-03   -0.23780E-01  1728   0.744E-01    0.115E-01
RMM:   2    -0.117418504356E+04   -0.49750E-03   -0.64204E-03  1596   0.106E-01    0.996E-02
RMM:   3    -0.117418490024E+04    0.14332E-03   -0.22832E-04  1146   0.217E-02    0.857E-02
RMM:   4    -0.117418493007E+04   -0.29836E-04   -0.41413E-04  1352   0.233E-02
  10 F= -.11813905E+04 E0= -.11813905E+04  d E =-.144342E-02  mag=    -0.0000
       N       E                     dE             d eps       ncg     rms          rms(c)
DAV:   1    -0.117418450435E+04    0.39589E-03   -0.74486E-01  1728   0.132E+00    0.202E-01
RMM:   2    -0.117418615607E+04   -0.16517E-02   -0.20108E-02  1596   0.188E-01    0.176E-01
RMM:   3    -0.117418570344E+04    0.45263E-03   -0.75926E-04  1346   0.385E-02    0.152E-01
RMM:   4    -0.117418567297E+04    0.30468E-04   -0.14093E-03  1552   0.423E-02    0.489E-02
RMM:   5    -0.117418565225E+04    0.20723E-04   -0.41408E-05  1040   0.949E-03
  11 F= -.11813915E+04 E0= -.11813915E+04  d E =-.240145E-02  mag=     0.0000
       N       E                     dE             d eps       ncg     rms          rms(c)
DAV:   1    -0.117418637318E+04   -0.70020E-03   -0.93038E-02  1728   0.474E-01    0.695E-02
RMM:   2    -0.117418654777E+04   -0.17459E-03   -0.23543E-03  1588   0.679E-02    0.626E-02
RMM:   3    -0.117418650620E+04    0.41568E-04   -0.82273E-05  1030   0.143E-02
  12 F= -.11813924E+04 E0= -.11813924E+04  d E =-.977056E-03  mag=    -0.0000
       N       E                     dE             d eps       ncg     rms          rms(c)
DAV:   1    -0.117418681117E+04   -0.26341E-03   -0.82798E-01  1584   0.142E+00    0.199E-01
RMM:   2    -0.117418844700E+04   -0.16358E-02   -0.20212E-02  1598   0.197E-01    0.180E-01
RMM:   3    -0.117418800319E+04    0.44382E-03   -0.84301E-04  1414   0.411E-02    0.160E-01
RMM:   4    -0.117418801261E+04   -0.94292E-05   -0.21980E-03  1568   0.525E-02    0.425E-02
RMM:   5    -0.117418795778E+04    0.54834E-04   -0.38051E-05  1046   0.975E-03
  13 F= -.11813943E+04 E0= -.11813943E+04  d E =-.280766E-02  mag=    -0.0000
       N       E                     dE             d eps       ncg     rms          rms(c)
DAV:   1    -0.117418901216E+04   -0.99955E-03   -0.82252E-02  1728   0.460E-01    0.722E-02
RMM:   2    -0.117418918954E+04   -0.17738E-03   -0.23478E-03  1594   0.692E-02    0.675E-02
RMM:   3    -0.117418914023E+04    0.49316E-04   -0.82668E-05  1030   0.145E-02
  14 F= -.11813956E+04 E0= -.11813956E+04  d E =-.129952E-02  mag=     0.0000
       N       E                     dE             d eps       ncg     rms          rms(c)
DAV:   1    -0.117418952007E+04   -0.33052E-03   -0.70864E-01  1584   0.136E+00    0.211E-01
RMM:   2    -0.117419109123E+04   -0.15712E-02   -0.19100E-02  1596   0.195E-01    0.196E-01
RMM:   3    -0.117419065094E+04    0.44028E-03   -0.81976E-04  1408   0.406E-02    0.177E-01
RMM:   4    -0.117419069565E+04   -0.44711E-04   -0.21758E-03  1566   0.517E-02    0.445E-02
RMM:   5    -0.117419066552E+04    0.30130E-04   -0.46573E-05  1054   0.108E-02
  15 F= -.11813975E+04 E0= -.11813975E+04  d E =-.318991E-02  mag=     0.0000
       N       E                     dE             d eps       ncg     rms          rms(c)
DAV:   1    -0.117419130424E+04   -0.60858E-03   -0.75135E-02  1728   0.421E-01    0.735E-02
RMM:   2    -0.117419143938E+04   -0.13514E-03   -0.19717E-03  1592   0.640E-02    0.674E-02
RMM:   3    -0.117419139838E+04    0.40994E-04   -0.68719E-05  1014   0.134E-02
  16 F= -.11813983E+04 E0= -.11813983E+04  d E =-.837093E-03  mag=    -0.0000
       N       E                     dE             d eps       ncg     rms          rms(c)
DAV:   1    -0.117419206393E+04   -0.62456E-03   -0.62761E-01  1584   0.122E+00    0.206E-01
RMM:   2    -0.117419312520E+04   -0.10613E-02   -0.13767E-02  1600   0.164E-01    0.187E-01
RMM:   3    -0.117419284079E+04    0.28440E-03   -0.60091E-04  1348   0.347E-02    0.163E-01
RMM:   4    -0.117419293881E+04   -0.98022E-04   -0.16286E-03  1534   0.455E-02    0.331E-02
RMM:   5    -0.117419289814E+04    0.40669E-04   -0.31097E-05  1036   0.895E-03
  17 F= -.11814001E+04 E0= -.11814001E+04  d E =-.265957E-02  mag=    -0.0000
       N       E                     dE             d eps       ncg     rms          rms(c)
DAV:   1    -0.117419385452E+04   -0.91571E-03   -0.45389E-02  1728   0.361E-01    0.497E-02
RMM:   2    -0.117419399929E+04   -0.14477E-03   -0.17875E-03  1588   0.598E-02    0.454E-02
RMM:   3    -0.117419395720E+04    0.42086E-04   -0.57098E-05   984   0.122E-02
  18 F= -.11814013E+04 E0= -.11814013E+04  d E =-.113811E-02  mag=     0.0000
       N       E                     dE             d eps       ncg     rms          rms(c)
DAV:   1    -0.117419389799E+04    0.10130E-03   -0.37700E-01  1584   0.105E+00    0.152E-01
RMM:   2    -0.117419506685E+04   -0.11689E-02   -0.13667E-02  1602   0.160E-01    0.140E-01
RMM:   3    -0.117419471469E+04    0.35216E-03   -0.48378E-04  1238   0.313E-02    0.129E-01
RMM:   4    -0.117419474805E+04   -0.33356E-04   -0.15903E-03  1550   0.428E-02    0.457E-02
RMM:   5    -0.117419469842E+04    0.49633E-04   -0.33648E-05  1030   0.951E-03
  19 F= -.11814022E+04 E0= -.11814022E+04  d E =-.212272E-02  mag=     0.0000
       N       E                     dE             d eps       ncg     rms          rms(c)
DAV:   1    -0.117419555080E+04   -0.80275E-03   -0.74975E-02  1728   0.458E-01    0.695E-02
RMM:   2    -0.117419569836E+04   -0.14757E-03   -0.19974E-03  1596   0.670E-02    0.643E-02
RMM:   3    -0.117419564765E+04    0.50710E-04   -0.64772E-05   984   0.127E-02
  20 F= -.11814032E+04 E0= -.11814032E+04  d E =-.990683E-03  mag=     0.0000
       N       E                     dE             d eps       ncg     rms          rms(c)
DAV:   1    -0.117419558957E+04    0.10879E-03   -0.79046E-04  1872   0.498E-02    0.304E-02
RMM:   2    -0.117419558771E+04    0.18574E-05   -0.39893E-05   970   0.109E-02
  21 F= -.11814032E+04 E0= -.11814032E+04  d E =-.935534E-03  mag=     0.0000
