       N       E                     dE             d eps       ncg     rms          rms(c)
DAV:   1     0.476707930119E+04    0.47671E+04   -0.17710E+05  1908   0.919E+02
DAV:   2    -0.882047208979E+02   -0.48553E+04   -0.44398E+04  2520   0.207E+02
DAV:   3    -0.120327410664E+04   -0.11151E+04   -0.11108E+04  2088   0.108E+02
DAV:   4    -0.124792760651E+04   -0.44653E+02   -0.44386E+02  2052   0.285E+01
DAV:   5    -0.124906886001E+04   -0.11413E+01   -0.11384E+01  2412   0.417E+00    0.656E+01
RMM:   6    -0.123355980495E+04    0.15509E+02   -0.90317E+00  1586   0.334E+00    0.537E+01
RMM:   7    -0.119420995007E+04    0.39350E+02   -0.93600E+01  1590   0.103E+01    0.299E+01
RMM:   8    -0.118527314716E+04    0.89368E+01   -0.11449E+01  1602   0.382E+00    0.234E+01
RMM:   9    -0.118364425386E+04    0.16289E+01   -0.31738E+01  1585   0.631E+00    0.119E+01
RMM:  10    -0.118280760604E+04    0.83665E+00   -0.62664E+00  1624   0.249E+00    0.730E+00
RMM:  11    -0.118237519431E+04    0.43241E+00   -0.24861E-01  1729   0.633E-01    0.657E+00
RMM:  12    -0.118109882188E+04    0.12764E+01   -0.30584E+00  1584   0.183E+00    0.176E+00
RMM:  13    -0.118112984387E+04   -0.31022E-01   -0.16484E-01  1599   0.479E-01    0.135E+00
RMM:  14    -0.118107124438E+04    0.58599E-01   -0.10331E-01  1628   0.295E-01    0.620E-01
RMM:  15    -0.118107159717E+04   -0.35280E-03   -0.14678E-02  1702   0.124E-01    0.569E-01
RMM:  16    -0.118106562251E+04    0.59747E-02   -0.11149E-02  1608   0.109E-01    0.231E-01
RMM:  17    -0.118106565612E+04   -0.33606E-04   -0.23062E-03  1591   0.536E-02    0.171E-01
RMM:  18    -0.118106622132E+04   -0.56521E-03   -0.12019E-03  1438   0.374E-02    0.138E-01
RMM:  19    -0.118106592747E+04    0.29385E-03   -0.63699E-04  1293   0.246E-02    0.506E-02
RMM:  20    -0.118106591309E+04    0.14385E-04   -0.18087E-04  1080   0.160E-02
   1 F= -.11884096E+04 E0= -.11884096E+04  d E =-.118841E+04  mag=    -0.0001
       N       E                     dE             d eps       ncg     rms          rms(c)
DAV:   1    -0.118106374761E+04    0.21799E-02   -0.65484E-01  1656   0.131E+00    0.319E-01
RMM:   2    -0.118106534843E+04   -0.16008E-02   -0.21060E-02  1619   0.197E-01    0.292E-01
RMM:   3    -0.118106501466E+04    0.33377E-03   -0.12075E-03  1583   0.430E-02    0.258E-01
RMM:   4    -0.118106471038E+04    0.30428E-03   -0.31974E-03  1584   0.639E-02    0.759E-02
RMM:   5    -0.118106462688E+04    0.83495E-04   -0.83268E-05  1054   0.134E-02
   2 F= -.11884092E+04 E0= -.11884092E+04  d E =0.373956E-03  mag=    -0.0000
       N       E                     dE             d eps       ncg     rms          rms(c)
DAV:   1    -0.118106650484E+04   -0.17945E-02   -0.19995E-01  1692   0.722E-01    0.171E-01
RMM:   2    -0.118106686997E+04   -0.36512E-03   -0.53266E-03  1613   0.101E-01    0.155E-01
RMM:   3    -0.118106672281E+04    0.14715E-03   -0.27754E-04  1150   0.223E-02    0.132E-01
RMM:   4    -0.118106659592E+04    0.12690E-03   -0.11239E-03  1566   0.389E-02    0.337E-02
RMM:   5    -0.118106657753E+04    0.18391E-04   -0.23430E-05  1015   0.780E-03
   3 F= -.11884107E+04 E0= -.11884107E+04  d E =-.106831E-02  mag=    -0.0000
       N       E                     dE             d eps       ncg     rms          rms(c)
DAV:   1    -0.118106751861E+04   -0.92269E-03   -0.32244E-01  1656   0.894E-01    0.179E-01
RMM:   2    -0.118106794144E+04   -0.42283E-03   -0.67167E-03  1596   0.114E-01    0.160E-01
RMM:   3    -0.118106772294E+04    0.21851E-03   -0.35224E-04  1204   0.257E-02    0.132E-01
RMM:   4    -0.118106761355E+04    0.10939E-03   -0.15462E-03  1580   0.443E-02    0.341E-02
RMM:   5    -0.118106758250E+04    0.31054E-04   -0.25251E-05  1021   0.810E-03
   4 F= -.11884119E+04 E0= -.11884119E+04  d E =-.126753E-02  mag=    -0.0000
       N       E                     dE             d eps       ncg     rms          rms(c)
DAV:   1    -0.118106757408E+04    0.39467E-04   -0.31734E-04  1764   0.325E-02    0.120E-02
RMM:   2    -0.118106757731E+04   -0.32263E-05   -0.24680E-05   980   0.830E-03
   5 F= -.11884119E+04 E0= -.11884119E+04  d E =-.125338E-02  mag=    -0.0000
       N       E                     dE             d eps       ncg     rms          rms(c)
DAV:   1    -0.118106877932E+04   -0.12052E-02   -0.27035E-01  1728   0.819E-01    0.105E-01
RMM:   2    -0.118106923542E+04   -0.45610E-03   -0.60260E-03  1614   0.108E-01    0.958E-02
RMM:   3    -0.118106916342E+04    0.71997E-04   -0.28154E-04  1172   0.231E-02
   6 F= -.11884131E+04 E0= -.11884131E+04  d E =-.121103E-02  mag=     0.0000
       N       E                     dE             d eps       ncg     rms          rms(c)
DAV:   1    -0.118106915101E+04    0.84409E-04   -0.26867E-01  1728   0.819E-01    0.125E-01
RMM:   2    -0.118106954053E+04   -0.38952E-03   -0.56397E-03  1622   0.103E-01    0.114E-01
RMM:   3    -0.118106946806E+04    0.72477E-04   -0.29148E-04  1174   0.231E-02
   7 F= -.11884131E+04 E0= -.11884131E+04  d E =-.113685E-02  mag=    -0.0000
       N       E                     dE             d eps       ncg     rms          rms(c)
DAV:   1    -0.118106686949E+04    0.26710E-02   -0.46818E-01  1728   0.111E+00    0.192E-01
RMM:   2    -0.118106795738E+04   -0.10879E-02   -0.13819E-02  1588   0.173E-01    0.182E-01
RMM:   3    -0.118106781558E+04    0.14180E-03   -0.60965E-04  1290   0.328E-02    0.170E-01
RMM:   4    -0.118106741698E+04    0.39861E-03   -0.19851E-03  1566   0.491E-02    0.745E-02
RMM:   5    -0.118106739402E+04    0.22956E-04   -0.10072E-04  1044   0.140E-02
   8 F= -.11884119E+04 E0= -.11884119E+04  d E =0.116215E-02  mag=    -0.0000
       N       E                     dE             d eps       ncg     rms          rms(c)
DAV:   1    -0.118107002135E+04   -0.26044E-02   -0.16840E-01  1728   0.668E-01    0.108E-01
RMM:   2    -0.118107039223E+04   -0.37088E-03   -0.46750E-03  1594   0.994E-02    0.103E-01
RMM:   3    -0.118107034269E+04    0.49543E-04   -0.18058E-04  1102   0.188E-02
   9 F= -.11884143E+04 E0= -.11884143E+04  d E =-.123787E-02  mag=     0.0000
