       N       E                     dE             d eps       ncg     rms          rms(c)
DAV:   1     0.475803842171E+04    0.47580E+04   -0.16890E+05  1872   0.899E+02
DAV:   2    -0.878143698469E+02   -0.48459E+04   -0.44009E+04  2520   0.203E+02
DAV:   3    -0.118187246654E+04   -0.10941E+04   -0.10894E+04  2160   0.107E+02
DAV:   4    -0.122518743816E+04   -0.43315E+02   -0.43131E+02  2052   0.279E+01
DAV:   5    -0.122631373644E+04   -0.11263E+01   -0.11247E+01  2412   0.416E+00    0.624E+01
RMM:   6    -0.120972880004E+04    0.16585E+02   -0.12379E+01  1584   0.370E+00    0.490E+01
RMM:   7    -0.118032875270E+04    0.29400E+02   -0.32526E+01  1584   0.650E+00    0.334E+01
RMM:   8    -0.116377873538E+04    0.16550E+02   -0.22337E+01  1584   0.537E+00    0.240E+01
RMM:   9    -0.115891211741E+04    0.48666E+01   -0.25251E+01  1584   0.571E+00    0.119E+01
RMM:  10    -0.115978793493E+04   -0.87582E+00   -0.33649E+00  1598   0.218E+00    0.764E+00
RMM:  11    -0.115930518247E+04    0.48275E+00   -0.52887E-01  1584   0.861E-01    0.385E+00
RMM:  12    -0.115910845691E+04    0.19673E+00   -0.43596E-01  1584   0.724E-01    0.153E+00
RMM:  13    -0.115909541014E+04    0.13047E-01   -0.17058E-01  1584   0.463E-01    0.383E-01
RMM:  14    -0.115909345482E+04    0.19553E-02   -0.71431E-03  1598   0.105E-01    0.253E-01
RMM:  15    -0.115909356152E+04   -0.10670E-03   -0.21417E-03  1550   0.472E-02    0.157E-01
RMM:  16    -0.115909402852E+04   -0.46699E-03   -0.20086E-03  1584   0.509E-02    0.997E-02
RMM:  17    -0.115909402339E+04    0.51262E-05   -0.74673E-04  1543   0.310E-02
   1 F= -.11662197E+04 E0= -.11662084E+04  d E =-.116622E+04  mag=     0.5084
       N       E                     dE             d eps       ncg     rms          rms(c)
DAV:   1    -0.115909322470E+04    0.80382E-03   -0.13640E+00  1728   0.156E+00    0.387E-01
RMM:   2    -0.115909525733E+04   -0.20326E-02   -0.28312E-02  1584   0.217E-01    0.347E-01
RMM:   3    -0.115909487974E+04    0.37759E-03   -0.21561E-03  1593   0.490E-02    0.317E-01
RMM:   4    -0.115909384402E+04    0.10357E-02   -0.36696E-03  1585   0.653E-02    0.154E-01
RMM:   5    -0.115909399768E+04   -0.15367E-03   -0.10090E-03  1574   0.359E-02    0.972E-02
RMM:   6    -0.115909405715E+04   -0.59465E-04   -0.54214E-04  1383   0.258E-02
   2 F= -.11662202E+04 E0= -.11662069E+04  d E =-.493610E-03  mag=     0.7019
       N       E                     dE             d eps       ncg     rms          rms(c)
DAV:   1    -0.115909740464E+04   -0.34070E-02   -0.29208E-01  1656   0.719E-01    0.184E-01
RMM:   2    -0.115909773670E+04   -0.33206E-03   -0.48473E-03  1585   0.967E-02    0.170E-01
RMM:   3    -0.115909771441E+04    0.22286E-04   -0.35345E-04  1180   0.223E-02
   3 F= -.11662236E+04 E0= -.11662099E+04  d E =-.393682E-02  mag=     0.8379
       N       E                     dE             d eps       ncg     rms          rms(c)
DAV:   1    -0.115909460038E+04    0.31363E-02   -0.75640E-01  1764   0.133E+00    0.281E-01
RMM:   2    -0.115909590976E+04   -0.13094E-02   -0.16731E-02  1588   0.191E-01    0.283E-01
RMM:   3    -0.115909576533E+04    0.14442E-03   -0.91386E-04  1387   0.375E-02    0.280E-01
RMM:   4    -0.115909588873E+04   -0.12340E-03   -0.82706E-04  1505   0.337E-02    0.258E-01
RMM:   5    -0.115909684134E+04   -0.95261E-03   -0.15912E-03  1576   0.470E-02    0.253E-01
RMM:   6    -0.115909420373E+04    0.26376E-02   -0.94228E-04  1508   0.416E-02    0.232E-01
RMM:   7    -0.115909105073E+04    0.31530E-02   -0.37920E-03  1583   0.772E-02    0.166E-01
RMM:   8    -0.115909137031E+04   -0.31958E-03   -0.37333E-03  1591   0.711E-02    0.909E-02
RMM:   9    -0.115909096854E+04    0.40177E-03   -0.36920E-03  1587   0.707E-02    0.779E-02
RMM:  10    -0.115908473397E+04    0.62346E-02   -0.13332E-02  1615   0.138E-01    0.291E-01
RMM:  11    -0.115908810587E+04   -0.33719E-02   -0.29825E-02  1586   0.233E-01    0.694E-02
RMM:  12    -0.115909313176E+04   -0.50259E-02   -0.26182E-03  1612   0.580E-02    0.963E-02
RMM:  13    -0.115909207644E+04    0.10553E-02   -0.14520E-03  1550   0.531E-02    0.575E-02
RMM:  14    -0.115909352357E+04   -0.14471E-02   -0.26895E-03  1577   0.691E-02    0.120E-01
RMM:  15    -0.115909469766E+04   -0.11741E-02   -0.56225E-04  1308   0.273E-02    0.148E-01
RMM:  16    -0.115909593253E+04   -0.12349E-02   -0.15328E-03  1551   0.466E-02    0.205E-01
RMM:  17    -0.115909526400E+04    0.66853E-03   -0.75878E-05  1062   0.146E-02    0.199E-01
RMM:  18    -0.115909500232E+04    0.26168E-03   -0.14598E-05   912   0.617E-03    0.197E-01
RMM:  19    -0.115909500178E+04    0.54144E-06   -0.37302E-06   711   0.344E-03
   4 F= -.11662207E+04 E0= -.11662067E+04  d E =0.295333E-02  mag=     0.7627
       N       E                     dE             d eps       ncg     rms          rms(c)
DAV:   1    -0.115909667537E+04   -0.16730E-02   -0.30771E-01  1728   0.849E-01    0.190E-01
RMM:   2    -0.115909915851E+04   -0.24831E-02   -0.71170E-03  1586   0.127E-01    0.191E-01
RMM:   3    -0.115909931572E+04   -0.15721E-03   -0.31567E-04  1179   0.239E-02    0.190E-01
RMM:   4    -0.115909973980E+04   -0.42408E-03   -0.38870E-04  1276   0.249E-02    0.188E-01
RMM:   5    -0.115909981788E+04   -0.78083E-04   -0.91471E-05  1045   0.132E-02
   5 F= -.11662256E+04 E0= -.11662116E+04  d E =-.201455E-02  mag=     0.6843
       N       E                     dE             d eps       ncg     rms          rms(c)
DAV:   1    -0.115909514135E+04    0.45984E-02   -0.46671E-01  1728   0.104E+00    0.291E-01
RMM:   2    -0.115909775134E+04   -0.26100E-02   -0.10306E-02  1584   0.150E-01    0.274E-01
RMM:   3    -0.115909734757E+04    0.40376E-03   -0.89715E-04  1589   0.388E-02    0.233E-01
RMM:   4    -0.115909688218E+04    0.46540E-03   -0.41841E-03  1584   0.738E-02    0.164E-01
RMM:   5    -0.115909747448E+04   -0.59231E-03   -0.37409E-04  1238   0.242E-02    0.169E-01
RMM:   6    -0.115909569872E+04    0.17758E-02   -0.74886E-04  1460   0.365E-02    0.154E-01
RMM:   7    -0.115909522185E+04    0.47687E-03   -0.66632E-04  1370   0.318E-02    0.128E-01
RMM:   8    -0.115909476518E+04    0.45667E-03   -0.12880E-03  1555   0.425E-02    0.811E-02
RMM:   9    -0.115909379213E+04    0.97305E-03   -0.26783E-03  1580   0.616E-02    0.573E-02
RMM:  10    -0.115909422905E+04   -0.43692E-03   -0.13072E-03  1506   0.405E-02    0.663E-02
RMM:  11    -0.115909334992E+04    0.87913E-03   -0.86824E-03  1584   0.122E-01    0.848E-02
RMM:  12    -0.115909444996E+04   -0.11000E-02   -0.21513E-03  1580   0.697E-02    0.522E-02
RMM:  13    -0.115909162759E+04    0.28224E-02   -0.71219E-03  1584   0.104E-01    0.115E-01
RMM:  14    -0.115906558176E+04    0.26046E-01   -0.43602E-02  1606   0.255E-01    0.851E-01
RMM:  15    -0.115909318625E+04   -0.27604E-01   -0.16749E-02  1589   0.185E-01    0.176E-01
RMM:  16    -0.115909430396E+04   -0.11177E-02   -0.22653E-03  1582   0.572E-02    0.885E-02
RMM:  17    -0.115909355652E+04    0.74744E-03   -0.70064E-03  1594   0.103E-01    0.213E-02
RMM:  18    -0.115909530147E+04   -0.17450E-02   -0.44492E-04  1243   0.234E-02    0.257E-02
RMM:  19    -0.115909532210E+04   -0.20630E-04   -0.33668E-05  1039   0.914E-03
   6 F= -.11662217E+04 E0= -.11662114E+04  d E =0.397800E-02  mag=     0.3261
       N       E                     dE             d eps       ncg     rms          rms(c)
DAV:   1    -0.115909813889E+04   -0.28374E-02   -0.16383E-01  1728   0.617E-01    0.134E-01
RMM:   2    -0.115909851745E+04   -0.37856E-03   -0.37723E-03  1584   0.901E-02    0.126E-01
RMM:   3    -0.115909834652E+04    0.17093E-03   -0.22391E-04  1126   0.200E-02    0.108E-01
RMM:   4    -0.115909803897E+04    0.30755E-03   -0.14340E-03  1581   0.409E-02    0.528E-02
RMM:   5    -0.115909807305E+04   -0.34082E-04   -0.68801E-05  1021   0.116E-02
   7 F= -.11662241E+04 E0= -.11662139E+04  d E =0.153396E-02  mag=     0.4312
       N       E                     dE             d eps       ncg     rms          rms(c)
DAV:   1    -0.115910042727E+04   -0.23883E-02   -0.31043E-01  1728   0.782E-01    0.163E-01
RMM:   2    -0.115910044903E+04   -0.21760E-04   -0.42795E-03  1584   0.969E-02    0.150E-01
RMM:   3    -0.115909999525E+04    0.45378E-03   -0.46821E-04  1348   0.277E-02    0.116E-01
RMM:   4    -0.115909958061E+04    0.41463E-03   -0.15992E-03  1584   0.439E-02    0.537E-02
RMM:   5    -0.115909966385E+04   -0.83234E-04   -0.11754E-04  1078   0.138E-02
   8 F= -.11662261E+04 E0= -.11662145E+04  d E =-.194377E-02  mag=     0.5287
       N       E                     dE             d eps       ncg     rms          rms(c)
DAV:   1    -0.115910071231E+04   -0.11317E-02   -0.36786E-01  1728   0.852E-01    0.186E-01
RMM:   2    -0.115910077257E+04   -0.60268E-04   -0.51225E-03  1584   0.106E-01    0.171E-01
RMM:   3    -0.115910035356E+04    0.41901E-03   -0.50051E-04  1358   0.290E-02    0.139E-01
RMM:   4    -0.115909994240E+04    0.41116E-03   -0.17467E-03  1584   0.467E-02    0.772E-02
RMM:   5    -0.115910012697E+04   -0.18457E-03   -0.21736E-04  1144   0.185E-02    0.680E-02
RMM:   6    -0.115910018917E+04   -0.62199E-04   -0.53957E-05  1021   0.104E-02
   9 F= -.11662270E+04 E0= -.11662138E+04  d E =-.286017E-02  mag=     0.6072
       N       E                     dE             d eps       ncg     rms          rms(c)
DAV:   1    -0.115910082231E+04   -0.69534E-03   -0.13214E-01  1728   0.520E-01    0.102E-01
RMM:   2    -0.115910124368E+04   -0.42137E-03   -0.19476E-03  1582   0.671E-02    0.996E-02
RMM:   3    -0.115910130784E+04   -0.64156E-04   -0.10729E-04  1064   0.154E-02
  10 F= -.11662282E+04 E0= -.11662152E+04  d E =-.119613E-02  mag=     0.7050
       N       E                     dE             d eps       ncg     rms          rms(c)
DAV:   1    -0.115910169191E+04   -0.44823E-03   -0.53647E-01  1656   0.105E+00    0.195E-01
RMM:   2    -0.115910227051E+04   -0.57860E-03   -0.76698E-03  1584   0.132E-01    0.191E-01
RMM:   3    -0.115910222683E+04    0.43683E-04   -0.50297E-04  1297   0.303E-02
  11 F= -.11662292E+04 E0= -.11662154E+04  d E =-.227330E-02  mag=     0.8593
       N       E                     dE             d eps       ncg     rms          rms(c)
DAV:   1    -0.115910333830E+04   -0.10678E-02   -0.11118E-01  1692   0.451E-01    0.187E-01
RMM:   2    -0.115910370082E+04   -0.36252E-03   -0.14660E-03  1564   0.563E-02    0.192E-01
RMM:   3    -0.115910301725E+04    0.68357E-03   -0.14271E-04  1088   0.191E-02    0.195E-01
RMM:   4    -0.115910409458E+04   -0.10773E-02   -0.38683E-04  1259   0.262E-02    0.203E-01
RMM:   5    -0.115910028605E+04    0.38085E-02   -0.31855E-03  1581   0.732E-02    0.127E-01
RMM:   6    -0.115909961600E+04    0.67005E-03   -0.37812E-03  1598   0.738E-02    0.869E-02
RMM:   7    -0.115909534231E+04    0.42737E-02   -0.14168E-02  1589   0.145E-01    0.212E-01
RMM:   8    -0.115909513862E+04    0.20369E-03   -0.59146E-02  1592   0.323E-01    0.215E-01
RMM:   9    -0.115910627304E+04   -0.11134E-01   -0.30297E-03  1611   0.657E-02    0.238E-01
RMM:  10    -0.115910588268E+04    0.39035E-03   -0.13792E-04  1114   0.201E-02    0.238E-01
RMM:  11    -0.115910262092E+04    0.32618E-02   -0.11262E-03  1503   0.441E-02    0.196E-01
RMM:  12    -0.115909634540E+04    0.62755E-02   -0.94605E-03  1588   0.119E-01    0.873E-02
RMM:  13    -0.115909614844E+04    0.19696E-03   -0.96672E-03  1609   0.112E-01    0.824E-02
RMM:  14    -0.115909912504E+04   -0.29766E-02   -0.24398E-03  1639   0.510E-02    0.839E-02
RMM:  15    -0.115910099881E+04   -0.18738E-02   -0.17618E-04  1124   0.220E-02    0.633E-02
RMM:  16    -0.115910134298E+04   -0.34417E-03   -0.26602E-04  1166   0.218E-02    0.550E-02
RMM:  17    -0.115910133151E+04    0.11469E-04   -0.43329E-05  1001   0.899E-03
  12 F= -.11662285E+04 E0= -.11662194E+04  d E =0.761616E-03  mag=     0.4108
       N       E                     dE             d eps       ncg     rms          rms(c)
DAV:   1    -0.115910218001E+04   -0.83703E-03   -0.28632E-01  1800   0.724E-01    0.105E-01
RMM:   2    -0.115910244567E+04   -0.26566E-03   -0.31854E-03  1586   0.852E-02    0.990E-02
RMM:   3    -0.115910243409E+04    0.11579E-04   -0.19326E-04  1125   0.200E-02
  13 F= -.11662298E+04 E0= -.11662194E+04  d E =-.552493E-03  mag=     0.4143
