       N       E                     dE             d eps       ncg     rms          rms(c)
DAV:   1     0.523990201607E+04    0.52399E+04   -0.17089E+05  1800   0.922E+02
DAV:   2     0.553226383576E+02   -0.51846E+04   -0.47116E+04  2520   0.219E+02
DAV:   3    -0.118302832599E+04   -0.12384E+04   -0.12316E+04  2160   0.117E+02
DAV:   4    -0.123823453528E+04   -0.55206E+02   -0.54807E+02  2016   0.334E+01
DAV:   5    -0.124057483223E+04   -0.23403E+01   -0.23344E+01  2592   0.673E+00    0.603E+01
RMM:   6    -0.122781054375E+04    0.12764E+02   -0.63101E+00  1719   0.335E+00    0.493E+01
RMM:   7    -0.118497005427E+04    0.42840E+02   -0.67645E+01  1992   0.106E+01    0.284E+01
RMM:   8    -0.117791620998E+04    0.70538E+01   -0.15094E+01  1899   0.708E+00    0.179E+01
RMM:   9    -0.117716693603E+04    0.74927E+00   -0.26088E+01  1994   0.779E+00    0.923E+00
RMM:  10    -0.117637286684E+04    0.79407E+00   -0.21580E+00  1978   0.400E+00    0.436E+00
RMM:  11    -0.117629576430E+04    0.77103E-01   -0.12671E+00  1953   0.193E+00    0.191E+00
RMM:  12    -0.117627282006E+04    0.22944E-01   -0.31238E-01  2003   0.106E+00    0.885E-01
RMM:  13    -0.117625895288E+04    0.13867E-01   -0.12121E-01  1877   0.542E-01    0.415E-01
RMM:  14    -0.117625647131E+04    0.24816E-02   -0.18863E-02  1875   0.416E-01    0.219E-01
RMM:  15    -0.117625725183E+04   -0.78052E-03   -0.10944E-02  2029   0.199E-01    0.190E-01
RMM:  16    -0.117625712295E+04    0.12888E-03   -0.30334E-03  1937   0.861E-02    0.111E-01
RMM:  17    -0.117625724278E+04   -0.11983E-03   -0.20193E-03  1837   0.772E-02    0.934E-02
RMM:  18    -0.117625713556E+04    0.10722E-03   -0.35865E-04  1358   0.583E-02    0.345E-02
RMM:  19    -0.117625716231E+04   -0.26750E-04   -0.27834E-04  1199   0.414E-02
   1 F= -.11839454E+04 E0= -.11839454E+04  d E =-.118395E+04  mag=    -0.0000
       N       E                     dE             d eps       ncg     rms          rms(c)
DAV:   1    -0.117625763672E+04   -0.50116E-03   -0.26124E-01  1836   0.842E-01    0.146E-01
RMM:   2    -0.117625807230E+04   -0.43558E-03   -0.72958E-03  1886   0.136E-01    0.138E-01
RMM:   3    -0.117625796438E+04    0.10792E-03   -0.55860E-04  1337   0.821E-02    0.122E-01
RMM:   4    -0.117625752093E+04    0.44345E-03   -0.21937E-03  2013   0.765E-02    0.333E-02
RMM:   5    -0.117625752575E+04   -0.48151E-05   -0.10008E-04  1086   0.294E-02
   2 F= -.11839456E+04 E0= -.11839456E+04  d E =-.279172E-03  mag=    -0.0000
       N       E                     dE             d eps       ncg     rms          rms(c)
DAV:   1    -0.117625794781E+04   -0.42688E-03   -0.51042E-02  1908   0.373E-01    0.595E-02
RMM:   2    -0.117625800069E+04   -0.52879E-04   -0.10824E-03  1653   0.565E-02    0.541E-02
RMM:   3    -0.117625797098E+04    0.29713E-04   -0.94816E-05  1011   0.464E-02
   3 F= -.11839461E+04 E0= -.11839461E+04  d E =-.760843E-03  mag=     0.0000
