       N       E                     dE             d eps       ncg     rms          rms(c)
DAV:   1     0.498790534806E+04    0.49879E+04   -0.17595E+05  1792   0.957E+02
DAV:   2    -0.204099079050E+02   -0.50083E+04   -0.45998E+04  2496   0.222E+02
DAV:   3    -0.120283967112E+04   -0.11824E+04   -0.11742E+04  1952   0.117E+02
DAV:   4    -0.125566878528E+04   -0.52829E+02   -0.52413E+02  1952   0.334E+01
DAV:   5    -0.125718659392E+04   -0.15178E+01   -0.15119E+01  2368   0.544E+00    0.775E+01
RMM:   6    -0.125760286178E+04   -0.41627E+00   -0.10924E+02  1731   0.159E+01    0.867E+01
RMM:   7    -0.123474859457E+04    0.22854E+02   -0.16486E+01  1542   0.672E+00    0.668E+01
RMM:   8    -0.122420681237E+04    0.10542E+02   -0.19077E+01  1574   0.526E+00    0.585E+01
RMM:   9    -0.118344262633E+04    0.40764E+02   -0.51148E+01  1725   0.954E+00    0.260E+01
RMM:  10    -0.118249669537E+04    0.94593E+00   -0.38022E+00  1677   0.339E+00    0.227E+01
RMM:  11    -0.118011041310E+04    0.23863E+01   -0.45653E+00  1536   0.285E+00    0.171E+01
RMM:  12    -0.117983468944E+04    0.27572E+00   -0.13675E+01  1703   0.469E+00    0.857E+00
RMM:  13    -0.117981267896E+04    0.22010E-01   -0.89336E-01  1661   0.170E+00    0.743E+00
RMM:  14    -0.117931270372E+04    0.49998E+00   -0.10544E+00  1540   0.140E+00    0.508E+00
RMM:  15    -0.117916628215E+04    0.14642E+00   -0.44133E-01  1583   0.942E-01    0.271E+00
RMM:  16    -0.117914369652E+04    0.22586E-01   -0.87017E-02  1783   0.440E-01    0.221E+00
RMM:  17    -0.117913229638E+04    0.11400E-01   -0.10976E-02  1577   0.161E-01    0.203E+00
RMM:  18    -0.117910127825E+04    0.31018E-01   -0.20992E-02  1611   0.176E-01    0.132E+00
RMM:  19    -0.117908880018E+04    0.12478E-01   -0.92536E-03  1743   0.114E-01    0.964E-01
RMM:  20    -0.117908103217E+04    0.77680E-02   -0.57379E-03  1601   0.893E-02    0.700E-01
RMM:  21    -0.117907512658E+04    0.59056E-02   -0.64007E-03  1653   0.859E-02    0.319E-01
RMM:  22    -0.117907429697E+04    0.82960E-03   -0.23830E-03  1620   0.621E-02    0.239E-01
RMM:  23    -0.117907410574E+04    0.19124E-03   -0.55608E-04  1800   0.323E-02    0.151E-01
RMM:  24    -0.117907395697E+04    0.14877E-03   -0.43293E-04  1599   0.245E-02    0.873E-02
RMM:  25    -0.117907394882E+04    0.81453E-05   -0.89825E-05  1713   0.149E-02    0.554E-02
RMM:  26    -0.117907396108E+04   -0.12260E-04   -0.44219E-05  1566   0.817E-03    0.408E-02
RMM:  27    -0.117907394452E+04    0.16563E-04   -0.33618E-05  1579   0.687E-03    0.185E-02
RMM:  28    -0.117907394385E+04    0.66448E-06   -0.16717E-05  1583   0.542E-03    0.940E-03
RMM:  29    -0.117907394369E+04    0.16065E-06   -0.27002E-06  1103   0.282E-03
   1 F= -.11862361E+04 E0= -.11862361E+04  d E =-.118624E+04  mag=    -0.0001
       N       E                     dE             d eps       ncg     rms          rms(c)
DAV:   1    -0.117907238613E+04    0.15577E-02   -0.24917E-01  1600   0.840E-01    0.120E-01
RMM:   2    -0.117907293900E+04   -0.55288E-03   -0.66540E-03  1602   0.138E-01    0.123E-01
RMM:   3    -0.117907306164E+04   -0.12263E-03   -0.15514E-03  1884   0.605E-02    0.117E-01
RMM:   4    -0.117907302072E+04    0.40919E-04   -0.21329E-04  1878   0.214E-02    0.110E-01
RMM:   5    -0.117907288875E+04    0.13197E-03   -0.35511E-04  1561   0.239E-02    0.720E-02
RMM:   6    -0.117907293905E+04   -0.50298E-04   -0.47256E-04  1578   0.269E-02    0.540E-02
RMM:   7    -0.117907291784E+04    0.21206E-04   -0.47975E-05  1752   0.121E-02    0.470E-02
RMM:   8    -0.117907288215E+04    0.35689E-04   -0.88806E-05  1546   0.104E-02    0.240E-02
RMM:   9    -0.117907288586E+04   -0.37080E-05   -0.11838E-05  1556   0.587E-03    0.197E-02
RMM:  10    -0.117907288216E+04    0.37050E-05   -0.15963E-05  1565   0.502E-03    0.106E-02
RMM:  11    -0.117907288234E+04   -0.18439E-06   -0.48326E-06  1316   0.337E-03
   2 F= -.11862356E+04 E0= -.11862356E+04  d E =0.486768E-03  mag=    -0.0000
       N       E                     dE             d eps       ncg     rms          rms(c)
DAV:   1    -0.117907398097E+04   -0.10988E-02   -0.89739E-02  1664   0.502E-01    0.717E-02
RMM:   2    -0.117907413749E+04   -0.15652E-03   -0.20267E-03  1566   0.809E-02    0.732E-02
RMM:   3    -0.117907417693E+04   -0.39436E-04   -0.53282E-04  1884   0.362E-02    0.691E-02
RMM:   4    -0.117907416178E+04    0.15148E-04   -0.69206E-05  1828   0.123E-02    0.648E-02
RMM:   5    -0.117907411818E+04    0.43603E-04   -0.71060E-05  1558   0.110E-02    0.467E-02
RMM:   6    -0.117907412585E+04   -0.76708E-05   -0.22212E-04  1562   0.181E-02    0.286E-02
RMM:   7    -0.117907411625E+04    0.95954E-05   -0.20025E-05  1626   0.808E-03    0.247E-02
RMM:   8    -0.117907410748E+04    0.87787E-05   -0.25126E-05  1527   0.591E-03    0.136E-02
RMM:   9    -0.117907410820E+04   -0.72929E-06   -0.32616E-06  1141   0.335E-03
   3 F= -.11862365E+04 E0= -.11862365E+04  d E =-.394649E-03  mag=     0.0000
