       N       E                     dE             d eps       ncg     rms          rms(c)
DAV:   1     0.484275036050E+04    0.48428E+04   -0.17097E+05  1872   0.903E+02
DAV:   2    -0.581903385991E+02   -0.49009E+04   -0.44493E+04  2556   0.210E+02
DAV:   3    -0.118009368108E+04   -0.11219E+04   -0.11167E+04  2088   0.111E+02
DAV:   4    -0.123473555379E+04   -0.54642E+02   -0.54386E+02  2196   0.353E+01
DAV:   5    -0.123634345261E+04   -0.16079E+01   -0.16020E+01  2196   0.512E+00    0.651E+01
RMM:   6    -0.122213417389E+04    0.14209E+02   -0.79516E+00  1797   0.353E+00    0.540E+01
RMM:   7    -0.118110653509E+04    0.41028E+02   -0.95503E+01  1878   0.119E+01    0.322E+01
RMM:   8    -0.117579082708E+04    0.53157E+01   -0.86964E+00  1900   0.808E+00    0.246E+01
RMM:   9    -0.117186530670E+04    0.39255E+01   -0.16835E+01  1648   0.490E+00    0.158E+01
RMM:  10    -0.117259757990E+04   -0.73227E+00   -0.11993E+01  1871   0.710E+00    0.926E+00
RMM:  11    -0.117125952338E+04    0.13381E+01   -0.21799E+00  1952   0.214E+00    0.648E+00
RMM:  12    -0.117068479177E+04    0.57473E+00   -0.10835E+00  1836   0.143E+00    0.532E+00
RMM:  13    -0.117049930547E+04    0.18549E+00   -0.59156E-01  1836   0.115E+00    0.225E+00
RMM:  14    -0.117046499913E+04    0.34306E-01   -0.21111E-01  1749   0.925E-01    0.120E+00
RMM:  15    -0.117044982505E+04    0.15174E-01   -0.41452E-02  1838   0.503E-01    0.130E+00
RMM:  16    -0.117045010402E+04   -0.27897E-03   -0.76200E-03  1853   0.182E-01    0.110E+00
RMM:  17    -0.117044853019E+04    0.15738E-02   -0.17448E-03  1695   0.820E-02    0.833E-01
RMM:  18    -0.117044523468E+04    0.32955E-02   -0.27794E-03  1668   0.840E-02    0.565E-01
RMM:  19    -0.117044473097E+04    0.50371E-03   -0.90416E-04  1489   0.523E-02    0.381E-01
RMM:  20    -0.117044433193E+04    0.39904E-03   -0.79047E-04  1410   0.585E-02    0.147E-01
RMM:  21    -0.117044433262E+04   -0.69085E-06   -0.34635E-04  1251   0.393E-02
   1 F= -.11775370E+04 E0= -.11775370E+04  d E =-.117754E+04  mag=    -0.0008
       N       E                     dE             d eps       ncg     rms          rms(c)
DAV:   1    -0.117044375435E+04    0.57758E-03   -0.31846E-01  1836   0.942E-01    0.197E-01
RMM:   2    -0.117044444905E+04   -0.69471E-03   -0.12003E-02  1938   0.162E-01    0.186E-01
RMM:   3    -0.117044411733E+04    0.33172E-03   -0.11325E-03  1524   0.104E-01    0.168E-01
RMM:   4    -0.117044350802E+04    0.60931E-03   -0.79577E-04  1568   0.480E-02    0.111E-01
RMM:   5    -0.117044328269E+04    0.22534E-03   -0.18046E-03  1766   0.684E-02    0.517E-02
RMM:   6    -0.117044328329E+04   -0.60432E-06   -0.19267E-04  1169   0.494E-02
   2 F= -.11775360E+04 E0= -.11775360E+04  d E =0.919805E-03  mag=    -0.0000
       N       E                     dE             d eps       ncg     rms          rms(c)
DAV:   1    -0.117044510035E+04   -0.18177E-02   -0.11943E-01  1764   0.573E-01    0.106E-01
RMM:   2    -0.117044524395E+04   -0.14360E-03   -0.33158E-03  1862   0.938E-02    0.962E-02
RMM:   3    -0.117044506555E+04    0.17840E-03   -0.33483E-04  1234   0.626E-02    0.786E-02
RMM:   4    -0.117044486182E+04    0.20372E-03   -0.32110E-04  1312   0.287E-02    0.485E-02
RMM:   5    -0.117044479301E+04    0.68816E-04   -0.26578E-04  1150   0.443E-02
   3 F= -.11775375E+04 E0= -.11775375E+04  d E =-.508759E-03  mag=     0.0000
