       N       E                     dE             d eps       ncg     rms          rms(c)
DAV:   1     0.480529491030E+04    0.48053E+04   -0.17622E+05  1908   0.919E+02
DAV:   2    -0.870888648505E+02   -0.48924E+04   -0.44782E+04  2520   0.209E+02
DAV:   3    -0.120021053507E+04   -0.11131E+04   -0.11089E+04  2196   0.108E+02
DAV:   4    -0.124447956152E+04   -0.44269E+02   -0.43993E+02  2052   0.280E+01
DAV:   5    -0.124591062193E+04   -0.14311E+01   -0.14276E+01  2628   0.430E+00    0.640E+01
RMM:   6    -0.123212644154E+04    0.13784E+02   -0.81285E+00  1584   0.324E+00    0.527E+01
RMM:   7    -0.118767458027E+04    0.44452E+02   -0.84596E+01  1584   0.103E+01    0.290E+01
RMM:   8    -0.118230009996E+04    0.53745E+01   -0.12720E+01  1592   0.415E+00    0.196E+01
RMM:   9    -0.118063238065E+04    0.16677E+01   -0.25784E+01  1584   0.572E+00    0.940E+00
RMM:  10    -0.118019237077E+04    0.44001E+00   -0.12064E+00  1617   0.139E+00    0.502E+00
RMM:  11    -0.117981508191E+04    0.37729E+00   -0.11295E+00  1587   0.116E+00    0.280E+00
RMM:  12    -0.117964767331E+04    0.16741E+00   -0.50480E-01  1584   0.739E-01    0.562E-01
RMM:  13    -0.117964080606E+04    0.68672E-02   -0.76552E-02  1621   0.311E-01    0.407E-01
RMM:  14    -0.117963598982E+04    0.48162E-02   -0.10828E-02  1617   0.120E-01    0.199E-01
RMM:  15    -0.117963563820E+04    0.35162E-03   -0.37156E-03  1645   0.646E-02    0.139E-01
RMM:  16    -0.117963612701E+04   -0.48881E-03   -0.23857E-03  1610   0.584E-02    0.125E-01
RMM:  17    -0.117963593812E+04    0.18889E-03   -0.48507E-04  1393   0.252E-02    0.599E-02
RMM:  18    -0.117963597128E+04   -0.33165E-04   -0.62813E-05  1036   0.114E-02
   1 F= -.11867740E+04 E0= -.11867740E+04  d E =-.118677E+04  mag=     0.0019
       N       E                     dE             d eps       ncg     rms          rms(c)
DAV:   1    -0.117962326167E+04    0.12676E-01   -0.55957E+00  1584   0.303E+00    0.119E+00
RMM:   2    -0.117963252259E+04   -0.92609E-02   -0.14407E-01  1622   0.421E-01    0.114E+00
RMM:   3    -0.117962885746E+04    0.36651E-02   -0.66420E-03  1730   0.837E-02    0.106E+00
RMM:   4    -0.117962698706E+04    0.18704E-02   -0.19401E-02  1589   0.128E-01    0.437E-01
RMM:   5    -0.117962678560E+04    0.20146E-03   -0.17504E-03  1492   0.404E-02    0.160E-01
RMM:   6    -0.117962618245E+04    0.60315E-03   -0.14765E-03  1367   0.319E-02    0.755E-02
RMM:   7    -0.117962608849E+04    0.93966E-04   -0.30782E-04  1154   0.168E-02
   2 F= -.11867662E+04 E0= -.11867662E+04  d E =0.778060E-02  mag=    -0.0000
       N       E                     dE             d eps       ncg     rms          rms(c)
DAV:   1    -0.117963994852E+04   -0.13766E-01   -0.20023E+00  1620   0.180E+00    0.703E-01
RMM:   2    -0.117964269311E+04   -0.27446E-02   -0.45450E-02  1600   0.237E-01    0.696E-01
RMM:   3    -0.117964151420E+04    0.11789E-02   -0.17758E-03  1452   0.439E-02    0.660E-01
RMM:   4    -0.117964049760E+04    0.10166E-02   -0.52450E-03  1579   0.662E-02    0.293E-01
RMM:   5    -0.117964078444E+04   -0.28683E-03   -0.10065E-03  1305   0.307E-02    0.983E-02
RMM:   6    -0.117964049690E+04    0.28754E-03   -0.60318E-04  1203   0.215E-02    0.439E-02
RMM:   7    -0.117964045976E+04    0.37140E-04   -0.11367E-04  1049   0.108E-02
   3 F= -.11867793E+04 E0= -.11867793E+04  d E =-.532232E-02  mag=     0.0000
       N       E                     dE             d eps       ncg     rms          rms(c)
DAV:   1    -0.117963996772E+04    0.52918E-03   -0.17953E+00  1656   0.192E+00    0.591E-01
RMM:   2    -0.117964247073E+04   -0.25030E-02   -0.34057E-02  1618   0.233E-01    0.550E-01
RMM:   3    -0.117964155021E+04    0.92052E-03   -0.18426E-03  1566   0.505E-02    0.469E-01
RMM:   4    -0.117964157687E+04   -0.26655E-04   -0.84060E-03  1590   0.847E-02    0.168E-01
RMM:   5    -0.117964116987E+04    0.40700E-03   -0.29118E-04  1140   0.182E-02    0.965E-02
RMM:   6    -0.117964105701E+04    0.11286E-03   -0.10728E-03  1288   0.251E-02    0.377E-02
RMM:   7    -0.117964104622E+04    0.10787E-04   -0.12642E-04  1046   0.110E-02
   4 F= -.11867814E+04 E0= -.11867814E+04  d E =-.206735E-02  mag=    -0.0000
       N       E                     dE             d eps       ncg     rms          rms(c)
DAV:   1    -0.117964335287E+04   -0.22959E-02   -0.31354E-01  1728   0.798E-01    0.246E-01
RMM:   2    -0.117964372191E+04   -0.36903E-03   -0.55461E-03  1596   0.942E-02    0.230E-01
RMM:   3    -0.117964355025E+04    0.17165E-03   -0.29596E-04  1156   0.210E-02    0.194E-01
RMM:   4    -0.117964357785E+04   -0.27593E-04   -0.14429E-03  1443   0.358E-02    0.696E-02
RMM:   5    -0.117964349148E+04    0.86365E-04   -0.80556E-05  1032   0.102E-02
   5 F= -.11867832E+04 E0= -.11867832E+04  d E =-.389670E-02  mag=    -0.0000
       N       E                     dE             d eps       ncg     rms          rms(c)
DAV:   1    -0.117964487312E+04   -0.12953E-02   -0.71709E-01  1728   0.123E+00    0.254E-01
RMM:   2    -0.117964581633E+04   -0.94320E-03   -0.14721E-02  1584   0.166E-01    0.235E-01
RMM:   3    -0.117964542195E+04    0.39438E-03   -0.63633E-04  1275   0.324E-02    0.208E-01
RMM:   4    -0.117964500045E+04    0.42150E-03   -0.27410E-03  1584   0.555E-02    0.833E-02
RMM:   5    -0.117964497600E+04    0.24454E-04   -0.12886E-04  1064   0.145E-02
   6 F= -.11867852E+04 E0= -.11867852E+04  d E =-.196914E-02  mag=    -0.0000
       N       E                     dE             d eps       ncg     rms          rms(c)
DAV:   1    -0.117964519085E+04   -0.19040E-03   -0.23906E-02  1800   0.224E-01    0.468E-02
RMM:   2    -0.117964519197E+04   -0.11218E-05   -0.40497E-04  1128   0.266E-02
   7 F= -.11867853E+04 E0= -.11867853E+04  d E =-.209711E-02  mag=    -0.0000
       N       E                     dE             d eps       ncg     rms          rms(c)
DAV:   1    -0.117964603495E+04   -0.84410E-03   -0.40563E-01  1728   0.972E-01    0.163E-01
RMM:   2    -0.117964665009E+04   -0.61515E-03   -0.77018E-03  1590   0.127E-01    0.147E-01
RMM:   3    -0.117964655473E+04    0.95362E-04   -0.33274E-04  1204   0.247E-02
   8 F= -.11867867E+04 E0= -.11867867E+04  d E =-.145938E-02  mag=     0.0000
       N       E                     dE             d eps       ncg     rms          rms(c)
DAV:   1    -0.117964647809E+04    0.17200E-03   -0.43334E-02  1728   0.321E-01    0.930E-02
RMM:   2    -0.117964648339E+04   -0.52957E-05   -0.72755E-04  1266   0.373E-02
   9 F= -.11867867E+04 E0= -.11867867E+04  d E =-.142310E-02  mag=    -0.0000
       N       E                     dE             d eps       ncg     rms          rms(c)
DAV:   1    -0.117964694819E+04   -0.47010E-03   -0.19785E-01  1728   0.729E-01    0.133E-01
RMM:   2    -0.117964729365E+04   -0.34546E-03   -0.47733E-03  1592   0.104E-01    0.121E-01
RMM:   3    -0.117964719127E+04    0.10238E-03   -0.19680E-04  1124   0.196E-02    0.106E-01
RMM:   4    -0.117964715000E+04    0.41269E-04   -0.10846E-03  1546   0.345E-02    0.463E-02
RMM:   5    -0.117964711933E+04    0.30670E-04   -0.29274E-05  1004   0.834E-03
  10 F= -.11867873E+04 E0= -.11867873E+04  d E =-.596666E-03  mag=    -0.0000
       N       E                     dE             d eps       ncg     rms          rms(c)
DAV:   1    -0.117964737503E+04   -0.22502E-03   -0.26902E-02  1800   0.269E-01    0.433E-02
RMM:   2    -0.117964741853E+04   -0.43508E-04   -0.57819E-04  1316   0.357E-02
  11 F= -.11867876E+04 E0= -.11867876E+04  d E =-.909426E-03  mag=    -0.0000
