       N       E                     dE             d eps       ncg     rms          rms(c)
DAV:   1     0.509823868142E+04    0.50982E+04   -0.17463E+05  1836   0.924E+02
DAV:   2    -0.137990475124E+02   -0.51120E+04   -0.46911E+04  2556   0.214E+02
DAV:   3    -0.118478846790E+04   -0.11710E+04   -0.11648E+04  2088   0.115E+02
DAV:   4    -0.124192669668E+04   -0.57138E+02   -0.56838E+02  2052   0.343E+01
DAV:   5    -0.124434157430E+04   -0.24149E+01   -0.24094E+01  2412   0.656E+00    0.615E+01
RMM:   6    -0.123161703722E+04    0.12725E+02   -0.70922E+00  1688   0.332E+00    0.501E+01
RMM:   7    -0.119287516403E+04    0.38742E+02   -0.55938E+01  1896   0.100E+01    0.296E+01
RMM:   8    -0.118221762510E+04    0.10658E+02   -0.16641E+01  1742   0.779E+00    0.219E+01
RMM:   9    -0.117989620918E+04    0.23214E+01   -0.33265E+01  1885   0.856E+00    0.952E+00
RMM:  10    -0.118032333166E+04   -0.42712E+00   -0.29725E+00  1909   0.532E+00    0.791E+00
RMM:  11    -0.117953001291E+04    0.79332E+00   -0.15058E+00  1875   0.173E+00    0.375E+00
RMM:  12    -0.117940638093E+04    0.12363E+00   -0.40468E-01  1767   0.146E+00    0.146E+00
RMM:  13    -0.117937920987E+04    0.27171E-01   -0.21015E-01  1916   0.762E-01    0.707E-01
RMM:  14    -0.117937506748E+04    0.41424E-02   -0.34060E-02  1958   0.308E-01    0.470E-01
RMM:  15    -0.117937472005E+04    0.34744E-03   -0.54748E-03  1823   0.116E-01    0.366E-01
RMM:  16    -0.117937465048E+04    0.69569E-04   -0.16787E-03  1653   0.846E-02    0.222E-01
RMM:  17    -0.117937480792E+04   -0.15744E-03   -0.63507E-04  1404   0.661E-02    0.149E-01
RMM:  18    -0.117937491793E+04   -0.11002E-03   -0.26905E-04  1160   0.498E-02    0.630E-02
RMM:  19    -0.117937490403E+04    0.13908E-04   -0.10519E-04  1076   0.264E-02
   1 F= -.11864711E+04 E0= -.11864711E+04  d E =-.118647E+04  mag=     1.0028
       N       E                     dE             d eps       ncg     rms          rms(c)
DAV:   1    -0.117937397134E+04    0.94660E-03   -0.26952E-01  1764   0.860E-01    0.162E-01
RMM:   2    -0.117937458289E+04   -0.61155E-03   -0.95622E-03  1888   0.140E-01    0.139E-01
RMM:   3    -0.117937438410E+04    0.19879E-03   -0.81263E-04  1383   0.815E-02    0.114E-01
RMM:   4    -0.117937414782E+04    0.23628E-03   -0.58108E-04  1408   0.434E-02    0.649E-02
RMM:   5    -0.117937412101E+04    0.26808E-04   -0.26105E-04  1174   0.504E-02
   2 F= -.11864705E+04 E0= -.11864705E+04  d E =0.654123E-03  mag=     1.0001
       N       E                     dE             d eps       ncg     rms          rms(c)
DAV:   1    -0.117937534680E+04   -0.11990E-02   -0.96176E-02  1728   0.510E-01    0.950E-02
RMM:   2    -0.117937549002E+04   -0.14322E-03   -0.27668E-03  1624   0.784E-02    0.802E-02
RMM:   3    -0.117937541202E+04    0.78001E-04   -0.42610E-04  1147   0.859E-02
   3 F= -.11864717E+04 E0= -.11864717E+04  d E =-.561625E-03  mag=     1.0000
