       N       E                     dE             d eps       ncg     rms          rms(c)
DAV:   1     0.490271993751E+04    0.49027E+04   -0.17416E+05  1872   0.913E+02
DAV:   2    -0.545030971074E+02   -0.49572E+04   -0.45233E+04  2520   0.207E+02
DAV:   3    -0.118442000513E+04   -0.11299E+04   -0.11249E+04  2088   0.109E+02
DAV:   4    -0.123041947494E+04   -0.45999E+02   -0.45747E+02  2052   0.290E+01
DAV:   5    -0.123160565072E+04   -0.11862E+01   -0.11826E+01  2268   0.429E+00    0.655E+01
RMM:   6    -0.121878090421E+04    0.12825E+02   -0.24257E+01  1602   0.490E+00    0.509E+01
RMM:   7    -0.120214506113E+04    0.16636E+02   -0.93419E+00  1584   0.360E+00    0.408E+01
RMM:   8    -0.117315243578E+04    0.28993E+02   -0.50784E+01  1584   0.816E+00    0.263E+01
RMM:   9    -0.116807575543E+04    0.50767E+01   -0.25465E+01  1586   0.570E+00    0.165E+01
RMM:  10    -0.117067068735E+04   -0.25949E+01   -0.73206E+00  1587   0.310E+00    0.124E+01
RMM:  11    -0.116839390993E+04    0.22768E+01   -0.31928E+00  1628   0.170E+00    0.704E+00
RMM:  12    -0.116809768793E+04    0.29622E+00   -0.46785E-01  1603   0.606E-01    0.584E+00
RMM:  13    -0.116762958231E+04    0.46811E+00   -0.15854E+00  1584   0.142E+00    0.212E+00
RMM:  14    -0.116762266866E+04    0.69136E-02   -0.52077E-02  1604   0.296E-01    0.158E+00
RMM:  15    -0.116760661423E+04    0.16054E-01   -0.44371E-02  1591   0.225E-01    0.776E-01
RMM:  16    -0.116760475491E+04    0.18593E-02   -0.18779E-02  1588   0.158E-01    0.471E-01
RMM:  17    -0.116760397162E+04    0.78329E-03   -0.26880E-03  1588   0.567E-02    0.308E-01
RMM:  18    -0.116760370646E+04    0.26516E-03   -0.14657E-03  1567   0.405E-02    0.141E-01
RMM:  19    -0.116760369839E+04    0.80704E-05   -0.55996E-04  1278   0.266E-02
   1 F= -.11747155E+04 E0= -.11747104E+04  d E =-.117472E+04  mag=    -0.8506
       N       E                     dE             d eps       ncg     rms          rms(c)
DAV:   1    -0.116759305161E+04    0.10655E-01   -0.26403E+00  1692   0.271E+00    0.626E-01
RMM:   2    -0.116760461795E+04   -0.11566E-01   -0.12628E-01  1594   0.450E-01    0.694E-01
RMM:   3    -0.116760284626E+04    0.17717E-02   -0.61127E-03  1872   0.893E-02    0.719E-01
RMM:   4    -0.116760205418E+04    0.79208E-03   -0.93975E-04  1491   0.348E-02    0.610E-01
RMM:   5    -0.116760111005E+04    0.94413E-03   -0.57042E-03  1584   0.841E-02    0.256E-01
RMM:   6    -0.116760083288E+04    0.27717E-03   -0.46854E-04  1282   0.256E-02    0.188E-01
RMM:   7    -0.116760069883E+04    0.13405E-03   -0.25853E-04  1135   0.177E-02    0.156E-01
RMM:   8    -0.116760067637E+04    0.22465E-04   -0.10601E-04  1025   0.125E-02
   2 F= -.11747132E+04 E0= -.11747084E+04  d E =0.226837E-02  mag=    -0.8577
       N       E                     dE             d eps       ncg     rms          rms(c)
DAV:   1    -0.116760465812E+04   -0.39593E-02   -0.83897E-01  1692   0.152E+00    0.354E-01
RMM:   2    -0.116760815215E+04   -0.34940E-02   -0.39164E-02  1584   0.251E-01    0.379E-01
RMM:   3    -0.116760744970E+04    0.70245E-03   -0.16499E-03  1500   0.481E-02    0.376E-01
RMM:   4    -0.116760747521E+04   -0.25504E-04   -0.22191E-04  1087   0.174E-02
   3 F= -.11747196E+04 E0= -.11747147E+04  d E =-.411443E-02  mag=    -0.8566
       N       E                     dE             d eps       ncg     rms          rms(c)
DAV:   1    -0.116760572411E+04    0.17256E-02   -0.71585E-01  1836   0.148E+00    0.515E-01
RMM:   2    -0.116760700776E+04   -0.12837E-02   -0.29684E-02  1590   0.248E-01    0.484E-01
RMM:   3    -0.116760492372E+04    0.20840E-02   -0.20700E-03  1631   0.561E-02    0.396E-01
RMM:   4    -0.116760310101E+04    0.18227E-02   -0.88816E-03  1584   0.103E-01    0.162E-01
RMM:   5    -0.116760306976E+04    0.31257E-04   -0.93054E-04  1584   0.366E-02
   4 F= -.11747146E+04 E0= -.11747095E+04  d E =0.499514E-02  mag=    -0.8456
       N       E                     dE             d eps       ncg     rms          rms(c)
DAV:   1    -0.116760787702E+04   -0.47760E-02   -0.39313E-01  1872   0.110E+00    0.194E-01
RMM:   2    -0.116760889240E+04   -0.10154E-02   -0.15196E-02  1590   0.176E-01    0.179E-01
RMM:   3    -0.116760835889E+04    0.53351E-03   -0.63264E-04  1326   0.341E-02    0.159E-01
RMM:   4    -0.116760752511E+04    0.83378E-03   -0.28803E-03  1584   0.603E-02    0.546E-02
RMM:   5    -0.116760751146E+04    0.13653E-04   -0.13541E-04  1055   0.162E-02
   5 F= -.11747195E+04 E0= -.11747145E+04  d E =0.113720E-03  mag=    -0.8504
