       N       E                     dE             d eps       ncg     rms          rms(c)
DAV:   1     0.488252956225E+04    0.48825E+04   -0.17187E+05  1872   0.913E+02
DAV:   2    -0.532934586555E+02   -0.49358E+04   -0.45022E+04  2520   0.207E+02
DAV:   3    -0.118182126265E+04   -0.11285E+04   -0.11224E+04  2124   0.109E+02
DAV:   4    -0.122692207151E+04   -0.45101E+02   -0.44859E+02  2052   0.287E+01
DAV:   5    -0.122806497023E+04   -0.11429E+01   -0.11408E+01  2376   0.421E+00    0.653E+01
RMM:   6    -0.121068485927E+04    0.17380E+02   -0.26396E+01  1584   0.523E+00    0.528E+01
RMM:   7    -0.119760677134E+04    0.13078E+02   -0.77856E+00  1584   0.318E+00    0.474E+01
RMM:   8    -0.118899533014E+04    0.86114E+01   -0.67437E+00  1584   0.267E+00    0.386E+01
RMM:   9    -0.116512728509E+04    0.23868E+02   -0.40997E+01  1584   0.732E+00    0.237E+01
RMM:  10    -0.116046625921E+04    0.46610E+01   -0.23984E+01  1584   0.545E+00    0.122E+01
RMM:  11    -0.116174170239E+04   -0.12754E+01   -0.23394E+00  1605   0.173E+00    0.125E+01
RMM:  12    -0.116146319157E+04    0.27851E+00   -0.13005E-01  1660   0.437E-01    0.108E+01
RMM:  13    -0.116122745380E+04    0.23574E+00   -0.55273E-01  1584   0.607E-01    0.698E+00
RMM:  14    -0.116101020381E+04    0.21725E+00   -0.85338E-01  1584   0.767E-01    0.538E+00
RMM:  15    -0.116096446035E+04    0.45743E-01   -0.59296E-02  1649   0.171E-01    0.312E+00
RMM:  16    -0.116091437888E+04    0.50081E-01   -0.19236E-01  1584   0.354E-01    0.354E+00
RMM:  17    -0.116093335646E+04   -0.18978E-01   -0.21782E-02  1593   0.124E-01    0.345E+00
RMM:  18    -0.116092242505E+04    0.10931E-01   -0.22913E-01  1584   0.336E-01    0.226E+00
RMM:  19    -0.116095009516E+04   -0.27670E-01   -0.49419E-02  1584   0.252E-01    0.166E+00
RMM:  20    -0.116092248415E+04    0.27611E-01   -0.23244E-02  1594   0.128E-01    0.136E+00
RMM:  21    -0.116091006193E+04    0.12422E-01   -0.95806E-03  1584   0.914E-02    0.141E+00
RMM:  22    -0.116091002468E+04    0.37245E-04   -0.33822E-03  1209   0.445E-02    0.126E+00
RMM:  23    -0.116090674142E+04    0.32833E-02   -0.16161E-02  1584   0.106E-01    0.839E-01
RMM:  24    -0.116090160117E+04    0.51403E-02   -0.83832E-03  1552   0.731E-02    0.831E-01
RMM:  25    -0.116091085530E+04   -0.92541E-02   -0.16381E-03  1288   0.454E-02    0.703E-01
RMM:  26    -0.116090769192E+04    0.31634E-02   -0.11574E-03  1217   0.268E-02    0.531E-01
RMM:  27    -0.116090665683E+04    0.10351E-02   -0.52269E-04  1080   0.175E-02    0.444E-01
RMM:  28    -0.116090513635E+04    0.15205E-02   -0.13941E-03  1158   0.248E-02    0.279E-01
RMM:  29    -0.116090462676E+04    0.50958E-03   -0.84686E-04  1087   0.206E-02    0.193E-01
RMM:  30    -0.116090434427E+04    0.28250E-03   -0.34044E-04  1049   0.156E-02    0.167E-01
RMM:  31    -0.116090446453E+04   -0.12027E-03   -0.82314E-05  1006   0.929E-03    0.133E-01
RMM:  32    -0.116090444906E+04    0.15475E-04   -0.62164E-05   992   0.747E-03
   1 F= -.11680288E+04 E0= -.11680288E+04  d E =-.116803E+04  mag=     1.0157
       N       E                     dE             d eps       ncg     rms          rms(c)
DAV:   1    -0.116090447448E+04   -0.99495E-05   -0.50133E+00  1692   0.266E+00    0.606E-01
RMM:   2    -0.116091093436E+04   -0.64599E-02   -0.74834E-02  1584   0.369E-01    0.495E-01
RMM:   3    -0.116091030899E+04    0.62536E-03   -0.48535E-03  1664   0.771E-02    0.391E-01
RMM:   4    -0.116090891163E+04    0.13974E-02   -0.36140E-03  1585   0.707E-02    0.215E-01
RMM:   5    -0.116090875410E+04    0.15753E-03   -0.13061E-03  1584   0.418E-02    0.110E-01
RMM:   6    -0.116090882873E+04   -0.74630E-04   -0.21683E-04  1101   0.180E-02
   2 F= -.11680330E+04 E0= -.11680330E+04  d E =-.418987E-02  mag=     1.0003
       N       E                     dE             d eps       ncg     rms          rms(c)
DAV:   1    -0.116091111614E+04   -0.23620E-02   -0.78287E-01  1764   0.105E+00    0.241E-01
RMM:   2    -0.116091191195E+04   -0.79581E-03   -0.10481E-02  1584   0.143E-01    0.197E-01
RMM:   3    -0.116091173327E+04    0.17869E-03   -0.62798E-04  1228   0.291E-02    0.154E-01
RMM:   4    -0.116091145219E+04    0.28108E-03   -0.73834E-04  1499   0.325E-02    0.812E-02
RMM:   5    -0.116091143073E+04    0.21452E-04   -0.20642E-04  1072   0.179E-02
   3 F= -.11680357E+04 E0= -.11680357E+04  d E =-.686107E-02  mag=     1.0000
       N       E                     dE             d eps       ncg     rms          rms(c)
DAV:   1    -0.116091216852E+04   -0.71633E-03   -0.45601E+00  1728   0.240E+00    0.513E-01
RMM:   2    -0.116091662560E+04   -0.44571E-02   -0.52806E-02  1584   0.329E-01    0.453E-01
RMM:   3    -0.116091577300E+04    0.85260E-03   -0.25545E-03  1628   0.621E-02    0.372E-01
RMM:   4    -0.116091410052E+04    0.16725E-02   -0.56894E-03  1584   0.822E-02    0.190E-01
RMM:   5    -0.116091407705E+04    0.23470E-04   -0.70200E-04  1401   0.310E-02
   4 F= -.11680373E+04 E0= -.11680373E+04  d E =-.160549E-02  mag=     1.0000
       N       E                     dE             d eps       ncg     rms          rms(c)
DAV:   1    -0.116091568456E+04   -0.15840E-02   -0.82090E-01  1728   0.102E+00    0.221E-01
RMM:   2    -0.116091636877E+04   -0.68422E-03   -0.92331E-03  1584   0.137E-01    0.204E-01
RMM:   3    -0.116091617055E+04    0.19822E-03   -0.44966E-04  1193   0.266E-02    0.187E-01
RMM:   4    -0.116091598156E+04    0.18898E-03   -0.67720E-04  1374   0.292E-02    0.183E-01
RMM:   5    -0.116091546688E+04    0.51469E-03   -0.12040E-04  1015   0.158E-02    0.164E-01
RMM:   6    -0.116091480935E+04    0.65753E-03   -0.37271E-04  1028   0.173E-02    0.127E-01
RMM:   7    -0.116091475964E+04    0.49705E-04   -0.15324E-03  1550   0.407E-02    0.559E-02
RMM:   8    -0.116091567161E+04   -0.91197E-03   -0.10214E-04  1025   0.144E-02    0.419E-02
RMM:   9    -0.116091567369E+04   -0.20820E-05   -0.10705E-04   998   0.116E-02
   5 F= -.11680393E+04 E0= -.11680393E+04  d E =-.363886E-02  mag=     1.0000
       N       E                     dE             d eps       ncg     rms          rms(c)
DAV:   1    -0.116091583210E+04   -0.16049E-03   -0.22373E+00  1728   0.171E+00    0.323E-01
RMM:   2    -0.116091799891E+04   -0.21668E-02   -0.25211E-02  1584   0.231E-01    0.312E-01
RMM:   3    -0.116091781439E+04    0.18452E-03   -0.10700E-03  1404   0.421E-02    0.289E-01
RMM:   4    -0.116091696657E+04    0.84782E-03   -0.33265E-03  1574   0.630E-02    0.125E-01
RMM:   5    -0.116091697922E+04   -0.12646E-04   -0.23594E-04  1116   0.186E-02
   6 F= -.11680402E+04 E0= -.11680402E+04  d E =-.896583E-03  mag=     1.0000
       N       E                     dE             d eps       ncg     rms          rms(c)
DAV:   1    -0.116091758774E+04   -0.62117E-03   -0.33807E-01  1728   0.663E-01    0.122E-01
RMM:   2    -0.116091785554E+04   -0.26780E-03   -0.35735E-03  1582   0.875E-02    0.118E-01
RMM:   3    -0.116091779480E+04    0.60737E-04   -0.14169E-04  1033   0.164E-02
   7 F= -.11680412E+04 E0= -.11680412E+04  d E =-.186777E-02  mag=     1.0000
       N       E                     dE             d eps       ncg     rms          rms(c)
DAV:   1    -0.116091738540E+04    0.47014E-03   -0.38680E-01  1656   0.100E+00    0.229E-01
RMM:   2    -0.116091782945E+04   -0.44405E-03   -0.99560E-03  1584   0.150E-01    0.210E-01
RMM:   3    -0.116091736381E+04    0.46564E-03   -0.51053E-04  1270   0.314E-02    0.186E-01
RMM:   4    -0.116091652718E+04    0.83663E-03   -0.21478E-03  1584   0.536E-02    0.127E-01
RMM:   5    -0.116091648134E+04    0.45838E-04   -0.17745E-04  1075   0.176E-02
   8 F= -.11680399E+04 E0= -.11680399E+04  d E =0.130083E-02  mag=     1.0000
       N       E                     dE             d eps       ncg     rms          rms(c)
DAV:   1    -0.116091826852E+04   -0.17413E-02   -0.17061E-01  1728   0.666E-01    0.146E-01
RMM:   2    -0.116091871875E+04   -0.45023E-03   -0.45893E-03  1584   0.103E-01    0.140E-01
RMM:   3    -0.116091861590E+04    0.10285E-03   -0.19709E-04  1104   0.198E-02    0.136E-01
RMM:   4    -0.116091851024E+04    0.10566E-03   -0.21298E-04  1057   0.183E-02    0.139E-01
RMM:   5    -0.116091824551E+04    0.26473E-03   -0.68601E-05   995   0.127E-02    0.125E-01
RMM:   6    -0.116091758987E+04    0.65565E-03   -0.46011E-04  1043   0.186E-02    0.793E-02
RMM:   7    -0.116091802307E+04   -0.43320E-03   -0.10195E-03  1550   0.348E-02    0.402E-02
RMM:   8    -0.116091828832E+04   -0.26526E-03   -0.11295E-04  1018   0.147E-02    0.255E-02
RMM:   9    -0.116091828093E+04    0.73946E-05   -0.81400E-05   981   0.102E-02
   9 F= -.11680417E+04 E0= -.11680417E+04  d E =-.489683E-03  mag=     1.0000
