       N       E                     dE             d eps       ncg     rms          rms(c)
DAV:   1     0.492536926687E+04    0.49254E+04   -0.17989E+05  1856   0.962E+02
DAV:   2    -0.338160225311E+02   -0.49592E+04   -0.45610E+04  2496   0.217E+02
DAV:   3    -0.120158425365E+04   -0.11678E+04   -0.11601E+04  1952   0.114E+02
DAV:   4    -0.125195218882E+04   -0.50368E+02   -0.50053E+02  1984   0.314E+01
DAV:   5    -0.125315750817E+04   -0.12053E+01   -0.12006E+01  2272   0.438E+00    0.803E+01
RMM:   6    -0.124363171729E+04    0.95258E+01   -0.96400E+01  1797   0.113E+01    0.729E+01
RMM:   7    -0.122181721512E+04    0.21815E+02   -0.10164E+01  1608   0.454E+00    0.457E+01
RMM:   8    -0.120574137819E+04    0.16076E+02   -0.13044E+01  1540   0.464E+00    0.360E+01
RMM:   9    -0.118656542057E+04    0.19176E+02   -0.25651E+01  1642   0.656E+00    0.251E+01
RMM:  10    -0.117916730079E+04    0.73981E+01   -0.14939E+01  1548   0.531E+00    0.179E+01
RMM:  11    -0.117959939044E+04   -0.43209E+00   -0.11682E+01  1561   0.459E+00    0.943E+00
RMM:  12    -0.117981963776E+04   -0.22025E+00   -0.16208E+00  1694   0.211E+00    0.655E+00
RMM:  13    -0.117945297468E+04    0.36666E+00   -0.26683E-01  1604   0.845E-01    0.418E+00
RMM:  14    -0.117922560484E+04    0.22737E+00   -0.99774E-01  1540   0.127E+00    0.493E+00
RMM:  15    -0.117924243154E+04   -0.16827E-01   -0.92292E-02  1545   0.527E-01    0.599E+00
RMM:  16    -0.117923502188E+04    0.74097E-02   -0.23029E-02  1681   0.249E-01    0.591E+00
RMM:  17    -0.117922233710E+04    0.12685E-01   -0.55212E-02  1548   0.311E-01    0.380E+00
RMM:  18    -0.117922131502E+04    0.10221E-02   -0.32747E-02  1611   0.227E-01    0.238E+00
RMM:  19    -0.117920858934E+04    0.12726E-01   -0.31637E-02  1623   0.228E-01    0.246E+00
RMM:  20    -0.117919905708E+04    0.95323E-02   -0.73564E-03  1645   0.123E-01    0.236E+00
RMM:  21    -0.117919511427E+04    0.39428E-02   -0.91208E-03  1746   0.112E-01    0.303E+00
RMM:  22    -0.117919343437E+04    0.16799E-02   -0.16330E-03  1758   0.532E-02    0.318E+00
RMM:  23    -0.117920810315E+04   -0.14669E-01   -0.13907E-02  1869   0.129E-01    0.201E+00
RMM:  24    -0.117922065837E+04   -0.12555E-01   -0.34928E-02  2139   0.193E-01    0.180E+00
RMM:  25    -0.117922935988E+04   -0.87015E-02   -0.10430E-02  1929   0.104E-01    0.299E+00
RMM:  26    -0.117921562945E+04    0.13730E-01   -0.88987E-03  1867   0.125E-01    0.187E+00
RMM:  27    -0.117920830621E+04    0.73232E-02   -0.23166E-02  2127   0.157E-01    0.187E+00
RMM:  28    -0.117921186775E+04   -0.35615E-02   -0.39953E-03  1835   0.753E-02    0.225E+00
RMM:  29    -0.117920138357E+04    0.10484E-01   -0.14286E-02  2146   0.125E-01    0.340E+00
RMM:  30    -0.117919341639E+04    0.79672E-02   -0.73062E-03  1959   0.889E-02    0.438E+00
RMM:  31    -0.117919468351E+04   -0.12671E-02   -0.46188E-04  1796   0.313E-02    0.421E+00
RMM:  32    -0.117919572148E+04   -0.10380E-02   -0.97583E-05  1681   0.142E-02    0.414E+00
RMM:  33    -0.117920424984E+04   -0.85284E-02   -0.66996E-03  2313   0.824E-02    0.313E+00
RMM:  34    -0.117920739338E+04   -0.31435E-02   -0.93577E-04  1947   0.341E-02    0.291E+00
RMM:  35    -0.117921008817E+04   -0.26948E-02   -0.72830E-04  1980   0.311E-02    0.268E+00
RMM:  36    -0.117921454808E+04   -0.44599E-02   -0.31765E-03  2308   0.591E-02    0.234E+00
RMM:  37    -0.117922040249E+04   -0.58544E-02   -0.56807E-03  2463   0.764E-02    0.248E+00
RMM:  38    -0.117922946783E+04   -0.90653E-02   -0.11586E-02  2539   0.105E-01    0.380E+00
RMM:  39    -0.117922650207E+04    0.29658E-02   -0.93595E-04  1943   0.574E-02    0.401E+00
RMM:  40    -0.117921411113E+04    0.12391E-01   -0.42229E-03  2348   0.749E-02    0.294E+00
RMM:  41    -0.117920870338E+04    0.54078E-02   -0.84046E-03  2496   0.913E-02    0.228E+00
RMM:  42    -0.117921109842E+04   -0.23950E-02   -0.15377E-03  2160   0.493E-02    0.228E+00
RMM:  43    -0.117920995184E+04    0.11466E-02   -0.85029E-04  2021   0.301E-02    0.241E+00
RMM:  44    -0.117921037912E+04   -0.42728E-03   -0.76627E-05  1762   0.116E-02    0.242E+00
RMM:  45    -0.117921144009E+04   -0.10610E-02   -0.17653E-04  1819   0.160E-02    0.233E+00
RMM:  46    -0.117921228621E+04   -0.84612E-03   -0.41756E-04  2111   0.228E-02    0.221E+00
RMM:  47    -0.117921035611E+04    0.19301E-02   -0.20240E-04  1960   0.169E-02    0.221E+00
RMM:  48    -0.117920902604E+04    0.13301E-02   -0.23176E-04  2002   0.175E-02    0.219E+00
RMM:  49    -0.117920963872E+04   -0.61268E-03   -0.62793E-05  1796   0.109E-02    0.213E+00
RMM:  50    -0.117920840622E+04    0.12325E-02   -0.15922E-04  2087   0.153E-02    0.207E+00
RMM:  51    -0.117920694429E+04    0.14619E-02   -0.17253E-04  2059   0.154E-02    0.203E+00
RMM:  52    -0.117920918077E+04   -0.22365E-02   -0.27249E-04  2152   0.197E-02    0.194E+00
RMM:  53    -0.117920916593E+04    0.14839E-04   -0.13083E-05  1400   0.543E-03    0.196E+00
RMM:  54    -0.117920865751E+04    0.50842E-03   -0.18988E-05  1525   0.589E-03    0.193E+00
RMM:  55    -0.117920842387E+04    0.23364E-03   -0.12002E-05  1481   0.427E-03    0.191E+00
RMM:  56    -0.117920716377E+04    0.12601E-02   -0.24578E-04  2352   0.189E-02    0.179E+00
RMM:  57    -0.117920545197E+04    0.17118E-02   -0.16829E-04  2241   0.144E-02    0.181E+00
RMM:  58    -0.117919791065E+04    0.75413E-02   -0.24761E-03  2583   0.593E-02    0.192E+00
RMM:  59    -0.117919990380E+04   -0.19932E-02   -0.13277E-04  2145   0.234E-02    0.188E+00
RMM:  60    -0.117919890783E+04    0.99597E-03   -0.51845E-05  1865   0.774E-03    0.193E+00
RMM:  61    -0.117920207828E+04   -0.31705E-02   -0.78815E-04  2571   0.360E-02    0.192E+00
RMM:  62    -0.117920196054E+04    0.11775E-03   -0.26320E-05  1678   0.109E-02    0.191E+00
RMM:  63    -0.117919850702E+04    0.34535E-02   -0.54358E-04  2405   0.267E-02    0.213E+00
RMM:  64    -0.117919796625E+04    0.54076E-03   -0.13730E-04  2208   0.137E-02    0.206E+00
RMM:  65    -0.117918995305E+04    0.80132E-02   -0.17911E-03  2563   0.503E-02    0.234E+00
RMM:  66    -0.117918595282E+04    0.40002E-02   -0.12454E-03  2518   0.386E-02    0.273E+00
RMM:  67    -0.117918581081E+04    0.14202E-03   -0.51876E-05  1688   0.832E-03    0.272E+00
RMM:  68    -0.117918567312E+04    0.13768E-03   -0.53451E-06  1252   0.298E-03    0.272E+00
RMM:  69    -0.117918575412E+04   -0.80996E-04   -0.30605E-05  1775   0.683E-03    0.271E+00
RMM:  70    -0.117918235315E+04    0.34010E-02   -0.36959E-04  2394   0.232E-02    0.281E+00
RMM:  71    -0.117917599937E+04    0.63538E-02   -0.18688E-03  2589   0.520E-02    0.295E+00
RMM:  72    -0.117917368950E+04    0.23099E-02   -0.30411E-04  2397   0.201E-02    0.293E+00
RMM:  73    -0.117917346593E+04    0.22357E-03   -0.50444E-05  1924   0.952E-03    0.299E+00
RMM:  74    -0.117917022655E+04    0.32394E-02   -0.16562E-04  2255   0.152E-02    0.306E+00
RMM:  75    -0.117917023291E+04   -0.63587E-05   -0.85969E-06  1338   0.429E-03    0.305E+00
RMM:  76    -0.117918269552E+04   -0.12463E-01   -0.34477E-03  2594   0.727E-02    0.282E+00
RMM:  77    -0.117918510053E+04   -0.24050E-02   -0.16372E-04  2193   0.213E-02    0.276E+00
RMM:  78    -0.117919016182E+04   -0.50613E-02   -0.53345E-04  2439   0.259E-02    0.256E+00
RMM:  79    -0.117919739600E+04   -0.72342E-02   -0.94049E-04  2496   0.337E-02    0.235E+00
RMM:  80    -0.117920318664E+04   -0.57906E-02   -0.90329E-04  2496   0.318E-02    0.217E+00
RMM:  81    -0.117921469702E+04   -0.11510E-01   -0.35945E-03  2584   0.622E-02    0.230E+00
RMM:  82    -0.117921390651E+04    0.79051E-03   -0.43144E-04  2339   0.275E-02    0.233E+00
RMM:  83    -0.117921014346E+04    0.37630E-02   -0.33309E-04  2428   0.247E-02    0.210E+00
RMM:  84    -0.117921646151E+04   -0.63180E-02   -0.90117E-04  2534   0.412E-02    0.262E+00
RMM:  85    -0.117921182041E+04    0.46411E-02   -0.45777E-04  2476   0.316E-02    0.225E+00
RMM:  86    -0.117921797626E+04   -0.61558E-02   -0.57390E-04  2444   0.285E-02    0.291E+00
RMM:  87    -0.117922024168E+04   -0.22654E-02   -0.18661E-04  2259   0.219E-02    0.347E+00
RMM:  88    -0.117921931889E+04    0.92278E-03   -0.53567E-05  1880   0.177E-02    0.366E+00
RMM:  89    -0.117921788475E+04    0.14341E-02   -0.11686E-05  1555   0.895E-03    0.362E+00
RMM:  90    -0.117921190428E+04    0.59805E-02   -0.15742E-04  2206   0.151E-02    0.286E+00
RMM:  91    -0.117920985095E+04    0.20533E-02   -0.18604E-04  2275   0.215E-02    0.228E+00
RMM:  92    -0.117921145728E+04   -0.16063E-02   -0.80894E-05  2042   0.207E-02    0.216E+00
RMM:  93    -0.117921104765E+04    0.40962E-03   -0.19960E-05  1680   0.774E-03    0.204E+00
RMM:  94    -0.117921036672E+04    0.68093E-03   -0.18503E-05  1629   0.608E-03    0.192E+00
RMM:  95    -0.117920513392E+04    0.52328E-02   -0.44608E-04  2439   0.232E-02    0.158E+00
RMM:  96    -0.117920384240E+04    0.12915E-02   -0.22563E-04  2311   0.187E-02    0.155E+00
RMM:  97    -0.117920102599E+04    0.28164E-02   -0.23230E-04  2332   0.161E-02    0.158E+00
RMM:  98    -0.117920196517E+04   -0.93918E-03   -0.29350E-05  1716   0.898E-03    0.158E+00
RMM:  99    -0.117920110906E+04    0.85611E-03   -0.27941E-05  1693   0.523E-03    0.162E+00
RMM: 100    -0.117920159066E+04   -0.48160E-03   -0.13606E-05  1531   0.498E-03
   1 F= -.11863322E+04 E0= -.11863318E+04  d E =-.118633E+04  mag=     1.7509
       N       E                     dE             d eps       ncg     rms          rms(c)
DAV:   1    -0.117818113827E+04    0.10200E+01   -0.63078E+01  1888   0.214E+01    0.430E+00
RMM:   2    -0.117915385426E+04   -0.97272E+00   -0.98238E+00  1871   0.333E+00    0.364E+00
RMM:   3    -0.117926005055E+04   -0.10620E+00   -0.11689E+00  1930   0.122E+00    0.281E+00
RMM:   4    -0.117928827681E+04   -0.28226E-01   -0.18027E-01  1807   0.491E-01    0.217E+00
RMM:   5    -0.117928871135E+04   -0.43454E-03   -0.70142E-02  1742   0.307E-01    0.136E+00
RMM:   6    -0.117929174089E+04   -0.30295E-02   -0.17500E-02  1775   0.159E-01    0.831E-01
RMM:   7    -0.117929450129E+04   -0.27604E-02   -0.46374E-03  1709   0.961E-02    0.341E-01
RMM:   8    -0.117929526190E+04   -0.76062E-03   -0.15742E-03  1702   0.559E-02    0.225E-01
RMM:   9    -0.117929516278E+04    0.99120E-04   -0.10330E-03  1661   0.390E-02    0.175E-01
RMM:  10    -0.117929505431E+04    0.10847E-03   -0.37438E-04  1756   0.245E-02    0.921E-02
RMM:  11    -0.117929504294E+04    0.11377E-04   -0.93009E-05  1903   0.127E-02    0.626E-02
RMM:  12    -0.117929505092E+04   -0.79853E-05   -0.46026E-05  1734   0.814E-03    0.387E-02
RMM:  13    -0.117929506246E+04   -0.11539E-04   -0.24043E-05  1708   0.659E-03    0.265E-02
RMM:  14    -0.117929506385E+04   -0.13917E-05   -0.21074E-05  1594   0.570E-03    0.177E-02
RMM:  15    -0.117929506531E+04   -0.14579E-05   -0.60818E-06  1363   0.334E-03    0.949E-03
RMM:  16    -0.117929506524E+04    0.66670E-07   -0.20824E-06  1130   0.196E-03
   2 F= -.11864300E+04 E0= -.11864300E+04  d E =-.978256E-01  mag=     2.0000
       N       E                     dE             d eps       ncg     rms          rms(c)
DAV:   1    -0.117923754344E+04    0.57522E-01   -0.52452E+00  1824   0.645E+00    0.105E+00
RMM:   2    -0.117930203056E+04   -0.64487E-01   -0.65125E-01  1860   0.919E-01    0.102E+00
RMM:   3    -0.117932287218E+04   -0.20842E-01   -0.19351E-01  1871   0.346E-01    0.865E-01
RMM:   4    -0.117932434383E+04   -0.14717E-02   -0.12600E-02  1882   0.121E-01    0.795E-01
RMM:   5    -0.117932494482E+04   -0.60099E-03   -0.32020E-03  1766   0.642E-02    0.612E-01
RMM:   6    -0.117932538493E+04   -0.44011E-03   -0.23711E-03  1712   0.635E-02    0.419E-01
RMM:   7    -0.117932544818E+04   -0.63247E-04   -0.59482E-04  1931   0.323E-02    0.323E-01
RMM:   8    -0.117932541857E+04    0.29612E-04   -0.18316E-04  1786   0.170E-02    0.238E-01
RMM:   9    -0.117932540489E+04    0.13675E-04   -0.17581E-04  1753   0.173E-02    0.118E-01
RMM:  10    -0.117932541267E+04   -0.77784E-05   -0.76966E-05  1789   0.115E-02    0.589E-02
RMM:  11    -0.117932541330E+04   -0.63290E-06   -0.11348E-05  1597   0.486E-03    0.458E-02
RMM:  12    -0.117932541560E+04   -0.22913E-05   -0.67835E-06  1466   0.346E-03    0.283E-02
RMM:  13    -0.117932541562E+04   -0.22363E-07   -0.23013E-06  1159   0.199E-03
   3 F= -.11864591E+04 E0= -.11864591E+04  d E =-.126875E+00  mag=     2.0000
       N       E                     dE             d eps       ncg     rms          rms(c)
DAV:   1    -0.117895180818E+04    0.37361E+00   -0.36064E+01  1920   0.141E+01    0.239E+00
RMM:   2    -0.117924723719E+04   -0.29543E+00   -0.30802E+00  1822   0.216E+00    0.222E+00
RMM:   3    -0.117927721182E+04   -0.29975E-01   -0.34540E-01  1823   0.802E-01    0.185E+00
RMM:   4    -0.117927755534E+04   -0.34352E-03   -0.67656E-02  1764   0.336E-01    0.149E+00
RMM:   5    -0.117927170938E+04    0.58460E-02   -0.38460E-02  1659   0.259E-01    0.809E-01
RMM:   6    -0.117927366493E+04   -0.19556E-02   -0.13164E-02  1664   0.160E-01    0.496E-01
RMM:   7    -0.117927377982E+04   -0.11489E-03   -0.28556E-03  2000   0.782E-02    0.289E-01
RMM:   8    -0.117927395488E+04   -0.17506E-03   -0.82058E-04  1810   0.376E-02    0.197E-01
RMM:   9    -0.117927372995E+04    0.22493E-03   -0.89307E-04  1589   0.390E-02    0.134E-01
RMM:  10    -0.117927374908E+04   -0.19137E-04   -0.35408E-04  1597   0.250E-02    0.105E-01
RMM:  11    -0.117927372474E+04    0.24346E-04   -0.85993E-05  1738   0.133E-02    0.754E-02
RMM:  12    -0.117927367790E+04    0.46842E-04   -0.10766E-04  1613   0.133E-02    0.486E-02
RMM:  13    -0.117927368863E+04   -0.10734E-04   -0.32506E-05  1736   0.791E-03    0.354E-02
RMM:  14    -0.117927369042E+04   -0.17939E-05   -0.21496E-05  1691   0.571E-03    0.226E-02
RMM:  15    -0.117927369014E+04    0.28448E-06   -0.12464E-05  1638   0.469E-03    0.145E-02
RMM:  16    -0.117927369011E+04    0.27987E-07   -0.40271E-06  1298   0.284E-03
   4 F= -.11864098E+04 E0= -.11864098E+04  d E =0.492583E-01  mag=     2.0000
       N       E                     dE             d eps       ncg     rms          rms(c)
DAV:   1    -0.117922899683E+04    0.44693E-01   -0.13845E+01  1856   0.895E+00    0.135E+00
RMM:   2    -0.117933467788E+04   -0.10568E+00   -0.11085E+00  1817   0.134E+00    0.140E+00
RMM:   3    -0.117935410196E+04   -0.19424E-01   -0.19800E-01  1831   0.502E-01    0.124E+00
RMM:   4    -0.117935511541E+04   -0.10134E-02   -0.24885E-02  1852   0.193E-01    0.114E+00
RMM:   5    -0.117935345482E+04    0.16606E-02   -0.76443E-03  1675   0.117E-01    0.903E-01
RMM:   6    -0.117935288959E+04    0.56523E-03   -0.85111E-03  1672   0.121E-01    0.727E-01
RMM:   7    -0.117935290016E+04   -0.10571E-04   -0.23943E-03  1818   0.697E-02    0.502E-01
RMM:   8    -0.117935306356E+04   -0.16339E-03   -0.81338E-04  1824   0.382E-02    0.368E-01
RMM:   9    -0.117935291213E+04    0.15142E-03   -0.33138E-04  1670   0.253E-02    0.270E-01
RMM:  10    -0.117935284069E+04    0.71438E-04   -0.68786E-04  1737   0.320E-02    0.138E-01
RMM:  11    -0.117935284375E+04   -0.30522E-05   -0.11248E-04  2044   0.155E-02    0.102E-01
RMM:  12    -0.117935284556E+04   -0.18097E-05   -0.30578E-05  1654   0.761E-03    0.644E-02
RMM:  13    -0.117935284778E+04   -0.22274E-05   -0.13230E-05  1679   0.457E-03    0.451E-02
RMM:  14    -0.117935285001E+04   -0.22234E-05   -0.10163E-05  1542   0.404E-03    0.269E-02
RMM:  15    -0.117935285047E+04   -0.46235E-06   -0.24286E-06  1159   0.210E-03
   5 F= -.11864875E+04 E0= -.11864875E+04  d E =-.283707E-01  mag=     2.0000
       N       E                     dE             d eps       ncg     rms          rms(c)
DAV:   1    -0.117931741930E+04    0.35431E-01   -0.92102E+00  1728   0.692E+00    0.108E+00
RMM:   2    -0.117938075256E+04   -0.63333E-01   -0.68758E-01  1831   0.101E+00    0.911E-01
RMM:   3    -0.117938524476E+04   -0.44922E-02   -0.74214E-02  1816   0.376E-01    0.753E-01
RMM:   4    -0.117938264029E+04    0.26045E-02   -0.21522E-02  1675   0.185E-01    0.471E-01
RMM:   5    -0.117938202831E+04    0.61198E-03   -0.74247E-03  1692   0.113E-01    0.303E-01
RMM:   6    -0.117938226054E+04   -0.23222E-03   -0.16620E-03  1844   0.599E-02    0.238E-01
RMM:   7    -0.117938256411E+04   -0.30358E-03   -0.86911E-04  1644   0.410E-02    0.122E-01
RMM:   8    -0.117938264628E+04   -0.82166E-04   -0.28003E-04  1664   0.235E-02    0.791E-02
RMM:   9    -0.117938258632E+04    0.59960E-04   -0.17322E-04  1583   0.178E-02    0.488E-02
RMM:  10    -0.117938260289E+04   -0.16574E-04   -0.37386E-05  1784   0.956E-03    0.365E-02
RMM:  11    -0.117938261252E+04   -0.96243E-05   -0.12336E-05  1544   0.491E-03    0.307E-02
RMM:  12    -0.117938261407E+04   -0.15517E-05   -0.11461E-05  1533   0.445E-03    0.200E-02
RMM:  13    -0.117938260837E+04    0.56968E-05   -0.10566E-05  1557   0.418E-03    0.106E-02
RMM:  14    -0.117938261008E+04   -0.17084E-05   -0.73580E-06  1533   0.346E-03    0.729E-03
RMM:  15    -0.117938261032E+04   -0.23969E-06   -0.13872E-06  1054   0.179E-03
   6 F= -.11865175E+04 E0= -.11865175E+04  d E =-.300821E-01  mag=     2.0000
       N       E                     dE             d eps       ncg     rms          rms(c)
DAV:   1    -0.117938254071E+04    0.69366E-04   -0.24193E-02  1888   0.355E-01    0.548E-02
RMM:   2    -0.117938269962E+04   -0.15890E-03   -0.18254E-03  1834   0.515E-02    0.456E-02
RMM:   3    -0.117938271257E+04   -0.12949E-04   -0.19360E-04  1806   0.191E-02    0.374E-02
RMM:   4    -0.117938271121E+04    0.13548E-05   -0.56124E-05  1680   0.941E-03    0.261E-02
RMM:   5    -0.117938270939E+04    0.18179E-05   -0.19165E-05  1697   0.557E-03    0.171E-02
RMM:   6    -0.117938271084E+04   -0.14457E-05   -0.55912E-06  1423   0.340E-03    0.112E-02
RMM:   7    -0.117938271284E+04   -0.19970E-05   -0.28169E-06  1155   0.239E-03    0.567E-03
RMM:   8    -0.117938271288E+04   -0.43441E-07   -0.67030E-07   999   0.122E-03
   7 F= -.11865176E+04 E0= -.11865176E+04  d E =-.301662E-01  mag=     2.0000
       N       E                     dE             d eps       ncg     rms          rms(c)
DAV:   1    -0.117935851176E+04    0.24201E-01   -0.75409E+00  1632   0.563E+00    0.842E-01
RMM:   2    -0.117939361952E+04   -0.35108E-01   -0.38893E-01  1811   0.826E-01    0.686E-01
RMM:   3    -0.117939642726E+04   -0.28077E-02   -0.47861E-02  1800   0.316E-01    0.573E-01
RMM:   4    -0.117939507917E+04    0.13481E-02   -0.12889E-02  1718   0.153E-01    0.353E-01
RMM:   5    -0.117939484050E+04    0.23866E-03   -0.49388E-03  1717   0.950E-02    0.219E-01
RMM:   6    -0.117939525971E+04   -0.41921E-03   -0.14649E-03  1797   0.535E-02    0.155E-01
RMM:   7    -0.117939538798E+04   -0.12826E-03   -0.37935E-04  1964   0.293E-02    0.911E-02
RMM:   8    -0.117939541658E+04   -0.28609E-04   -0.16087E-04  1647   0.172E-02    0.624E-02
RMM:   9    -0.117939541251E+04    0.40703E-05   -0.12270E-04  1655   0.139E-02    0.460E-02
RMM:  10    -0.117939540629E+04    0.62261E-05   -0.32566E-05  1663   0.803E-03    0.281E-02
RMM:  11    -0.117939540985E+04   -0.35573E-05   -0.78272E-06  1576   0.398E-03    0.194E-02
RMM:  12    -0.117939541143E+04   -0.15813E-05   -0.41988E-06  1292   0.293E-03    0.126E-02
RMM:  13    -0.117939541327E+04   -0.18459E-05   -0.56052E-06  1417   0.295E-03    0.927E-03
RMM:  14    -0.117939541414E+04   -0.86715E-06   -0.95974E-07  1041   0.149E-03
   8 F= -.11865309E+04 E0= -.11865308E+04  d E =-.132182E-01  mag=     2.0000
       N       E                     dE             d eps       ncg     rms          rms(c)
DAV:   1    -0.117939491773E+04    0.49554E-03   -0.45985E-01  1696   0.139E+00    0.206E-01
RMM:   2    -0.117939696724E+04   -0.20495E-02   -0.23657E-02  1817   0.204E-01    0.169E-01
RMM:   3    -0.117939714000E+04   -0.17276E-03   -0.28445E-03  1801   0.780E-02    0.140E-01
RMM:   4    -0.117939708354E+04    0.56460E-04   -0.84131E-04  1707   0.390E-02    0.847E-02
RMM:   5    -0.117939709549E+04   -0.11955E-04   -0.29765E-04  1747   0.232E-02    0.581E-02
RMM:   6    -0.117939711647E+04   -0.20974E-04   -0.67076E-05  1978   0.116E-02    0.402E-02
RMM:   7    -0.117939713828E+04   -0.21812E-04   -0.23510E-05  1610   0.688E-03    0.226E-02
RMM:   8    -0.117939714406E+04   -0.57804E-05   -0.10898E-05  1615   0.463E-03    0.156E-02
RMM:   9    -0.117939714248E+04    0.15809E-05   -0.66462E-06  1529   0.342E-03    0.120E-02
RMM:  10    -0.117939714202E+04    0.46198E-06   -0.20462E-06  1116   0.205E-03
   9 F= -.11865324E+04 E0= -.11865324E+04  d E =-.148085E-01  mag=     2.0000
       N       E                     dE             d eps       ncg     rms          rms(c)
DAV:   1    -0.117940528486E+04   -0.81424E-02   -0.40489E+00  1536   0.317E+00    0.541E-01
RMM:   2    -0.117941049190E+04   -0.52070E-02   -0.70611E-02  1741   0.425E-01    0.454E-01
RMM:   3    -0.117941087272E+04   -0.38082E-03   -0.11742E-02  1741   0.168E-01    0.408E-01
RMM:   4    -0.117941033167E+04    0.54105E-03   -0.29400E-03  1814   0.781E-02    0.303E-01
RMM:   5    -0.117940997081E+04    0.36086E-03   -0.29795E-03  1624   0.722E-02    0.146E-01
RMM:   6    -0.117941019135E+04   -0.22053E-03   -0.49289E-04  1741   0.339E-02    0.122E-01
RMM:   7    -0.117941026093E+04   -0.69589E-04   -0.11750E-04  1828   0.163E-02    0.103E-01
RMM:   8    -0.117941031967E+04   -0.58735E-04   -0.68087E-05  1632   0.107E-02    0.865E-02
RMM:   9    -0.117941032675E+04   -0.70801E-05   -0.65789E-05  1707   0.963E-03    0.517E-02
RMM:  10    -0.117941036278E+04   -0.36027E-04   -0.40983E-05  1641   0.812E-03    0.279E-02
RMM:  11    -0.117941037332E+04   -0.10541E-04   -0.11253E-05  1518   0.476E-03    0.164E-02
RMM:  12    -0.117941037471E+04   -0.13949E-05   -0.67751E-06  1420   0.324E-03    0.116E-02
RMM:  13    -0.117941037466E+04    0.50230E-07   -0.54846E-06  1329   0.296E-03
  10 F= -.11865459E+04 E0= -.11865459E+04  d E =-.134578E-01  mag=     2.0000
       N       E                     dE             d eps       ncg     rms          rms(c)
DAV:   1    -0.117941070942E+04   -0.33471E-03   -0.37884E-01  1536   0.966E-01    0.164E-01
RMM:   2    -0.117941111542E+04   -0.40600E-03   -0.63299E-03  1740   0.129E-01    0.139E-01
RMM:   3    -0.117941114334E+04   -0.27919E-04   -0.10887E-03  1745   0.512E-02    0.126E-01
RMM:   4    -0.117941111673E+04    0.26608E-04   -0.27563E-04  1802   0.241E-02    0.923E-02
RMM:   5    -0.117941111324E+04    0.34979E-05   -0.27784E-04  1616   0.220E-02    0.453E-02
RMM:   6    -0.117941114300E+04   -0.29764E-04   -0.47166E-05  1704   0.104E-02    0.379E-02
RMM:   7    -0.117941115136E+04   -0.83569E-05   -0.10438E-05  1659   0.490E-03    0.324E-02
RMM:   8    -0.117941115911E+04   -0.77576E-05   -0.76762E-06  1335   0.361E-03    0.269E-02
RMM:   9    -0.117941116070E+04   -0.15843E-05   -0.62359E-06  1277   0.293E-03    0.155E-02
RMM:  10    -0.117941116511E+04   -0.44067E-05   -0.37979E-06  1198   0.253E-03    0.872E-03
RMM:  11    -0.117941116625E+04   -0.11492E-05   -0.12648E-06  1076   0.159E-03    0.495E-03
RMM:  12    -0.117941116641E+04   -0.16010E-06   -0.62011E-07  1009   0.106E-03
  11 F= -.11865468E+04 E0= -.11865468E+04  d E =-.143276E-01  mag=     2.0000
       N       E                     dE             d eps       ncg     rms          rms(c)
DAV:   1    -0.117941695646E+04   -0.57902E-02   -0.26275E+00  1536   0.257E+00    0.454E-01
RMM:   2    -0.117942036249E+04   -0.34060E-02   -0.46282E-02  1728   0.348E-01    0.391E-01
RMM:   3    -0.117942067007E+04   -0.30758E-03   -0.78507E-03  1745   0.139E-01    0.361E-01
RMM:   4    -0.117942029410E+04    0.37596E-03   -0.18623E-03  1787   0.635E-02    0.278E-01
RMM:   5    -0.117941980228E+04    0.49182E-03   -0.25062E-03  1582   0.660E-02    0.136E-01
RMM:   6    -0.117942000931E+04   -0.20703E-03   -0.36781E-04  1695   0.301E-02    0.114E-01
RMM:   7    -0.117942008895E+04   -0.79632E-04   -0.79694E-05  1842   0.139E-02    0.102E-01
RMM:   8    -0.117942015993E+04   -0.70984E-04   -0.73697E-05  1633   0.107E-02    0.814E-02
RMM:   9    -0.117942017987E+04   -0.19943E-04   -0.69500E-05  1710   0.100E-02    0.437E-02
RMM:  10    -0.117942021764E+04   -0.37763E-04   -0.35400E-05  1630   0.776E-03    0.249E-02
RMM:  11    -0.117942022272E+04   -0.50815E-05   -0.13832E-05  1597   0.513E-03    0.114E-02
RMM:  12    -0.117942022347E+04   -0.75679E-06   -0.43774E-06  1261   0.275E-03
  12 F= -.11865558E+04 E0= -.11865558E+04  d E =-.906075E-02  mag=     2.0000
       N       E                     dE             d eps       ncg     rms          rms(c)
DAV:   1    -0.117942044740E+04   -0.22468E-03   -0.19374E-01  1600   0.699E-01    0.124E-01
RMM:   2    -0.117942066537E+04   -0.21797E-03   -0.34203E-03  1726   0.947E-02    0.107E-01
RMM:   3    -0.117942068424E+04   -0.18870E-04   -0.57739E-04  1752   0.377E-02    0.991E-02
RMM:   4    -0.117942067310E+04    0.11138E-04   -0.13719E-04  1789   0.173E-02    0.767E-02
RMM:   5    -0.117942065402E+04    0.19078E-04   -0.18468E-04  1568   0.180E-02    0.382E-02
RMM:   6    -0.117942067699E+04   -0.22968E-04   -0.28259E-05  1670   0.825E-03    0.316E-02
RMM:   7    -0.117942068467E+04   -0.76766E-05   -0.59325E-06  1363   0.376E-03    0.283E-02
RMM:   8    -0.117942069161E+04   -0.69405E-05   -0.60171E-06  1255   0.310E-03    0.224E-02
RMM:   9    -0.117942069412E+04   -0.25141E-05   -0.57803E-06  1255   0.287E-03    0.120E-02
RMM:  10    -0.117942069800E+04   -0.38749E-05   -0.26513E-06  1159   0.217E-03    0.689E-03
RMM:  11    -0.117942069849E+04   -0.49380E-06   -0.11155E-06  1052   0.146E-03
  13 F= -.11865563E+04 E0= -.11865563E+04  d E =-.954118E-02  mag=     2.0000
       N       E                     dE             d eps       ncg     rms          rms(c)
DAV:   1    -0.117942202404E+04   -0.13260E-02   -0.91581E-01  1632   0.194E+00    0.296E-01
RMM:   2    -0.117942566982E+04   -0.36458E-02   -0.41650E-02  1784   0.281E-01    0.242E-01
RMM:   3    -0.117942594820E+04   -0.27838E-03   -0.47362E-03  1789   0.106E-01    0.224E-01
RMM:   4    -0.117942592711E+04    0.21096E-04   -0.12848E-03  1890   0.465E-02    0.178E-01
RMM:   5    -0.117942574056E+04    0.18654E-03   -0.72142E-04  1608   0.365E-02    0.107E-01
RMM:   6    -0.117942576436E+04   -0.23794E-04   -0.28478E-04  1637   0.230E-02    0.707E-02
RMM:   7    -0.117942580832E+04   -0.43964E-04   -0.44593E-05  1826   0.101E-02    0.669E-02
RMM:   8    -0.117942583115E+04   -0.22826E-04   -0.16855E-05  1551   0.585E-03    0.618E-02
RMM:   9    -0.117942585333E+04   -0.22179E-04   -0.36646E-05  1657   0.734E-03    0.356E-02
RMM:  10    -0.117942587120E+04   -0.17869E-04   -0.22812E-05  1639   0.627E-03    0.157E-02
RMM:  11    -0.117942587669E+04   -0.54903E-05   -0.66489E-06  1425   0.350E-03    0.883E-03
RMM:  12    -0.117942587694E+04   -0.24918E-06   -0.24140E-06  1116   0.204E-03
  14 F= -.11865614E+04 E0= -.11865613E+04  d E =-.504002E-02  mag=     2.0000
       N       E                     dE             d eps       ncg     rms          rms(c)
DAV:   1    -0.117942554682E+04    0.32986E-03   -0.24798E-01  1600   0.101E+00    0.155E-01
RMM:   2    -0.117942652694E+04   -0.98012E-03   -0.11480E-02  1786   0.147E-01    0.126E-01
RMM:   3    -0.117942660905E+04   -0.82113E-04   -0.13330E-03  1796   0.552E-02    0.117E-01
RMM:   4    -0.117942660934E+04   -0.28591E-06   -0.36792E-04  1913   0.241E-02    0.934E-02
RMM:   5    -0.117942657068E+04    0.38653E-04   -0.19022E-04  1606   0.189E-02    0.558E-02
RMM:   6    -0.117942658326E+04   -0.12580E-04   -0.79836E-05  1610   0.122E-02    0.370E-02
RMM:   7    -0.117942659663E+04   -0.13364E-04   -0.11849E-05  1719   0.523E-03    0.353E-02
RMM:   8    -0.117942660353E+04   -0.68984E-05   -0.49180E-06  1236   0.315E-03    0.324E-02
RMM:   9    -0.117942661011E+04   -0.65807E-05   -0.98540E-06  1347   0.378E-03    0.191E-02
RMM:  10    -0.117942661579E+04   -0.56885E-05   -0.62278E-06  1313   0.324E-03    0.830E-03
RMM:  11    -0.117942661754E+04   -0.17450E-05   -0.18578E-06  1091   0.185E-03    0.467E-03
RMM:  12    -0.117942661759E+04   -0.50091E-07   -0.75533E-07  1005   0.117E-03
  15 F= -.11865620E+04 E0= -.11865620E+04  d E =-.571630E-02  mag=     2.0000
       N       E                     dE             d eps       ncg     rms          rms(c)
DAV:   1    -0.117942225446E+04    0.43631E-02   -0.96003E-01  1856   0.235E+00    0.353E-01
RMM:   2    -0.117942987440E+04   -0.76199E-02   -0.81166E-02  1820   0.347E-01    0.282E-01
RMM:   3    -0.117943053831E+04   -0.66391E-03   -0.77014E-03  1830   0.125E-01    0.253E-01
RMM:   4    -0.117943063071E+04   -0.92405E-04   -0.19567E-03  1835   0.542E-02    0.198E-01
RMM:   5    -0.117943048502E+04    0.14569E-03   -0.67969E-04  1672   0.355E-02    0.133E-01
RMM:   6    -0.117943048396E+04    0.10596E-05   -0.35170E-04  1666   0.249E-02    0.837E-02
RMM:   7    -0.117943054989E+04   -0.65925E-04   -0.69914E-05  1951   0.117E-02    0.765E-02
RMM:   8    -0.117943056926E+04   -0.19371E-04   -0.15064E-05  1530   0.556E-03    0.737E-02
RMM:   9    -0.117943060029E+04   -0.31037E-04   -0.41307E-05  1649   0.755E-03    0.475E-02
RMM:  10    -0.117943061822E+04   -0.17931E-04   -0.32968E-05  1658   0.728E-03    0.193E-02
RMM:  11    -0.117943062705E+04   -0.88217E-05   -0.70959E-06  1389   0.369E-03    0.103E-02
RMM:  12    -0.117943062726E+04   -0.21485E-06   -0.16525E-06  1072   0.185E-03
  16 F= -.11865658E+04 E0= -.11865658E+04  d E =-.377746E-02  mag=     2.0000
       N       E                     dE             d eps       ncg     rms          rms(c)
DAV:   1    -0.117943029540E+04    0.33165E-03   -0.68933E-02  1952   0.630E-01    0.946E-02
RMM:   2    -0.117943082718E+04   -0.53179E-03   -0.58556E-03  1814   0.935E-02    0.755E-02
RMM:   3    -0.117943087678E+04   -0.49598E-04   -0.55982E-04  1826   0.337E-02    0.670E-02
RMM:   4    -0.117943088883E+04   -0.12053E-04   -0.14347E-04  1800   0.148E-02    0.517E-02
RMM:   5    -0.117943088690E+04    0.19306E-05   -0.49063E-05  1676   0.935E-03    0.354E-02
RMM:   6    -0.117943089152E+04   -0.46115E-05   -0.23604E-05  1660   0.653E-03    0.222E-02
RMM:   7    -0.117943089728E+04   -0.57661E-05   -0.46885E-06  1331   0.312E-03    0.206E-02
RMM:   8    -0.117943089862E+04   -0.13343E-05   -0.11333E-06  1048   0.155E-03    0.199E-02
RMM:   9    -0.117943090131E+04   -0.26914E-05   -0.27165E-06  1137   0.197E-03    0.129E-02
RMM:  10    -0.117943090231E+04   -0.10009E-05   -0.23953E-06  1158   0.192E-03    0.549E-03
RMM:  11    -0.117943090351E+04   -0.12005E-05   -0.53950E-07  1009   0.105E-03    0.285E-03
RMM:  12    -0.117943090353E+04   -0.17342E-07   -0.13454E-07   905   0.586E-04
  17 F= -.11865660E+04 E0= -.11865660E+04  d E =-.399493E-02  mag=     2.0000
       N       E                     dE             d eps       ncg     rms          rms(c)
DAV:   1    -0.117943158141E+04   -0.67790E-03   -0.50454E-01  1632   0.146E+00    0.216E-01
RMM:   2    -0.117943351183E+04   -0.19304E-02   -0.22033E-02  1790   0.210E-01    0.172E-01
RMM:   3    -0.117943367816E+04   -0.16632E-03   -0.26478E-03  1819   0.797E-02    0.168E-01
RMM:   4    -0.117943367307E+04    0.50895E-05   -0.68758E-04  1933   0.341E-02    0.134E-01
RMM:   5    -0.117943359669E+04    0.76380E-04   -0.48467E-04  1605   0.298E-02    0.756E-02
RMM:   6    -0.117943362248E+04   -0.25788E-04   -0.12305E-04  1675   0.161E-02    0.511E-02
RMM:   7    -0.117943364727E+04   -0.24793E-04   -0.22443E-05  1911   0.719E-03    0.486E-02
RMM:   8    -0.117943366025E+04   -0.12985E-04   -0.11483E-05  1489   0.458E-03    0.422E-02
RMM:   9    -0.117943367067E+04   -0.10415E-04   -0.16584E-05  1513   0.484E-03    0.251E-02
RMM:  10    -0.117943368450E+04   -0.13835E-04   -0.10925E-05  1537   0.459E-03    0.954E-03
RMM:  11    -0.117943368417E+04    0.33659E-06   -0.31539E-06  1184   0.235E-03
  18 F= -.11865687E+04 E0= -.11865687E+04  d E =-.263564E-02  mag=     2.0000
       N       E                     dE             d eps       ncg     rms          rms(c)
DAV:   1    -0.117943365981E+04    0.24692E-04   -0.80548E-02  1632   0.582E-01    0.869E-02
RMM:   2    -0.117943395812E+04   -0.29830E-03   -0.35343E-03  1789   0.842E-02    0.691E-02
RMM:   3    -0.117943398637E+04   -0.28257E-04   -0.42341E-04  1825   0.320E-02    0.677E-02
RMM:   4    -0.117943399057E+04   -0.41927E-05   -0.11595E-04  1937   0.136E-02    0.545E-02
RMM:   5    -0.117943399098E+04   -0.41822E-06   -0.72362E-05  1590   0.116E-02    0.313E-02
RMM:   6    -0.117943399680E+04   -0.58197E-05   -0.19817E-05  1656   0.644E-03    0.208E-02
RMM:   7    -0.117943400159E+04   -0.47880E-05   -0.32796E-06  1211   0.284E-03    0.199E-02
RMM:   8    -0.117943400404E+04   -0.24462E-05   -0.19961E-06  1078   0.199E-03    0.173E-02
RMM:   9    -0.117943400599E+04   -0.19531E-05   -0.22845E-06  1112   0.182E-03    0.111E-02
RMM:  10    -0.117943400854E+04   -0.25487E-05   -0.20546E-06  1117   0.198E-03    0.381E-03
RMM:  11    -0.117943400857E+04   -0.31036E-07   -0.48030E-07   996   0.977E-04
  19 F= -.11865689E+04 E0= -.11865689E+04  d E =-.290512E-02  mag=     2.0000
       N       E                     dE             d eps       ncg     rms          rms(c)
DAV:   1    -0.117943543382E+04   -0.14253E-02   -0.45554E-01  1536   0.117E+00    0.183E-01
RMM:   2    -0.117943611121E+04   -0.67739E-03   -0.93141E-03  1766   0.160E-01    0.158E-01
RMM:   3    -0.117943618634E+04   -0.75132E-04   -0.16704E-03  1794   0.657E-02    0.148E-01
RMM:   4    -0.117943615407E+04    0.32271E-04   -0.36840E-04  1815   0.284E-02    0.118E-01
RMM:   5    -0.117943611220E+04    0.41872E-04   -0.51780E-04  1558   0.307E-02    0.581E-02
RMM:   6    -0.117943614798E+04   -0.35779E-04   -0.69236E-05  1698   0.136E-02    0.420E-02
RMM:   7    -0.117943616620E+04   -0.18224E-04   -0.17212E-05  1795   0.622E-03    0.405E-02
RMM:   8    -0.117943617383E+04   -0.76255E-05   -0.57813E-06  1281   0.338E-03    0.349E-02
RMM:   9    -0.117943618186E+04   -0.80303E-05   -0.13864E-05  1418   0.439E-03    0.193E-02
RMM:  10    -0.117943619026E+04   -0.83967E-05   -0.58267E-06  1387   0.343E-03    0.868E-03
RMM:  11    -0.117943619032E+04   -0.66513E-07   -0.20608E-06  1127   0.194E-03
  20 F= -.11865711E+04 E0= -.11865711E+04  d E =-.214432E-02  mag=     2.0000
