       N       E                     dE             d eps       ncg     rms          rms(c)
DAV:   1     0.467409404081E+04    0.46741E+04   -0.17743E+05  1888   0.940E+02
DAV:   2    -0.707516887717E+02   -0.47448E+04   -0.43136E+04  2432   0.211E+02
DAV:   3    -0.118369620729E+04   -0.11129E+04   -0.11080E+04  2016   0.111E+02
DAV:   4    -0.122919489519E+04   -0.45499E+02   -0.45195E+02  1920   0.295E+01
DAV:   5    -0.123037640451E+04   -0.11815E+01   -0.11786E+01  2368   0.445E+00    0.656E+01
RMM:   6    -0.121063212164E+04    0.19744E+02   -0.15233E+01  1610   0.492E+00    0.577E+01
RMM:   7    -0.120004384395E+04    0.10588E+02   -0.83293E+00  1563   0.364E+00    0.497E+01
RMM:   8    -0.117006371046E+04    0.29980E+02   -0.40810E+01  1620   0.810E+00    0.303E+01
RMM:   9    -0.116140813333E+04    0.86556E+01   -0.37834E+01  1548   0.809E+00    0.166E+01
RMM:  10    -0.116290281228E+04   -0.14947E+01   -0.76491E+00  1553   0.410E+00    0.887E+00
RMM:  11    -0.116280922738E+04    0.93585E-01   -0.68786E-01  1641   0.137E+00    0.708E+00
RMM:  12    -0.116222071519E+04    0.58851E+00   -0.13660E+00  1551   0.155E+00    0.293E+00
RMM:  13    -0.116217065465E+04    0.50061E-01   -0.39773E-01  1554   0.900E-01    0.131E+00
RMM:  14    -0.116217362135E+04   -0.29667E-02   -0.32892E-02  1639   0.323E-01    0.666E-01
RMM:  15    -0.116216849717E+04    0.51242E-02   -0.39211E-02  1593   0.272E-01    0.451E-01
RMM:  16    -0.116216949507E+04   -0.99790E-03   -0.93715E-03  1556   0.159E-01    0.172E-01
RMM:  17    -0.116216953351E+04   -0.38437E-04   -0.17534E-03  1723   0.677E-02    0.141E-01
RMM:  18    -0.116216979592E+04   -0.26241E-03   -0.77851E-04  1605   0.423E-02    0.100E-01
RMM:  19    -0.116217004062E+04   -0.24470E-03   -0.50073E-04  1550   0.339E-02    0.498E-02
RMM:  20    -0.116217008384E+04   -0.43217E-04   -0.12787E-04  1590   0.178E-02    0.389E-02
RMM:  21    -0.116217008015E+04    0.36903E-05   -0.33880E-05  1631   0.889E-03    0.254E-02
RMM:  22    -0.116217008384E+04   -0.36851E-05   -0.25923E-05  1598   0.682E-03    0.136E-02
RMM:  23    -0.116217008382E+04    0.13453E-07   -0.93994E-06  1549   0.403E-03
   1 F= -.11621701E+04 E0= -.11621701E+04  d E =-.116217E+04  mag=     4.0006
       N       E                     dE             d eps       ncg     rms          rms(c)
DAV:   1    -0.116129874975E+04    0.87133E+00   -0.28526E+02  1696   0.235E+01    0.889E+00
RMM:   2    -0.116185407834E+04   -0.55533E+00   -0.62484E+00  1614   0.371E+00    0.987E+00
RMM:   3    -0.116207284466E+04   -0.21877E+00   -0.15260E+00  1862   0.152E+00    0.106E+01
RMM:   4    -0.116196282123E+04    0.11002E+00   -0.30380E-01  1709   0.689E-01    0.808E+00
RMM:   5    -0.116180532761E+04    0.15749E+00   -0.37591E-01  1598   0.773E-01    0.319E+00
RMM:   6    -0.116177820978E+04    0.27118E-01   -0.17500E-01  1644   0.518E-01    0.122E+00
RMM:   7    -0.116177705033E+04    0.11594E-02   -0.20734E-02  1742   0.214E-01    0.113E+00
RMM:   8    -0.116177380556E+04    0.32448E-02   -0.10248E-02  1764   0.132E-01    0.725E-01
RMM:   9    -0.116177340187E+04    0.40369E-03   -0.44942E-03  1648   0.840E-02    0.534E-01
RMM:  10    -0.116177278381E+04    0.61805E-03   -0.41754E-03  1599   0.900E-02    0.215E-01
RMM:  11    -0.116177277556E+04    0.82519E-05   -0.15248E-03  1840   0.497E-02    0.756E-02
RMM:  12    -0.116177279095E+04   -0.15390E-04   -0.27124E-04  1956   0.204E-02    0.489E-02
RMM:  13    -0.116177276030E+04    0.30651E-04   -0.10030E-04  1612   0.126E-02    0.259E-02
RMM:  14    -0.116177275871E+04    0.15919E-05   -0.60507E-05  1592   0.100E-02    0.138E-02
RMM:  15    -0.116177275849E+04    0.21418E-06   -0.11089E-05  1697   0.506E-03    0.975E-03
RMM:  16    -0.116177275819E+04    0.30368E-06   -0.43936E-06  1348   0.277E-03
   2 F= -.11617728E+04 E0= -.11617728E+04  d E =0.397326E+00  mag=     4.0000
       N       E                     dE             d eps       ncg     rms          rms(c)
DAV:   1    -0.116230974815E+04   -0.53699E+00   -0.10605E+02  1728   0.146E+01    0.634E+00
RMM:   2    -0.116248562032E+04   -0.17587E+00   -0.21229E+00  1640   0.232E+00    0.512E+00
RMM:   3    -0.116249536984E+04   -0.97495E-02   -0.48138E-01  1725   0.934E-01    0.416E+00
RMM:   4    -0.116245222902E+04    0.43141E-01   -0.15573E-01  1646   0.508E-01    0.240E+00
RMM:   5    -0.116245392445E+04   -0.16954E-02   -0.95190E-02  1628   0.390E-01    0.109E+00
RMM:   6    -0.116245503094E+04   -0.11065E-02   -0.20351E-02  1792   0.207E-01    0.544E-01
RMM:   7    -0.116245123487E+04    0.37961E-02   -0.48691E-03  1662   0.947E-02    0.393E-01
RMM:   8    -0.116244806760E+04    0.31673E-02   -0.11414E-02  1639   0.120E-01    0.247E-01
RMM:   9    -0.116244787387E+04    0.19373E-03   -0.30184E-03  1680   0.751E-02    0.952E-02
RMM:  10    -0.116244786891E+04    0.49577E-05   -0.27433E-04  1787   0.264E-02    0.633E-02
RMM:  11    -0.116244782154E+04    0.47377E-04   -0.31013E-04  1591   0.205E-02    0.365E-02
RMM:  12    -0.116244781623E+04    0.53063E-05   -0.12872E-04  1663   0.146E-02    0.237E-02
RMM:  13    -0.116244781239E+04    0.38437E-05   -0.27204E-05  1735   0.713E-03    0.123E-02
RMM:  14    -0.116244781108E+04    0.13066E-05   -0.13839E-05  1519   0.490E-03    0.846E-03
RMM:  15    -0.116244781094E+04    0.14369E-06   -0.34628E-06  1223   0.271E-03
   3 F= -.11624478E+04 E0= -.11624478E+04  d E =-.277727E+00  mag=     4.0000
       N       E                     dE             d eps       ncg     rms          rms(c)
DAV:   1    -0.116242988691E+04    0.17924E-01   -0.41777E+01  1632   0.104E+01    0.277E+00
RMM:   2    -0.116249509177E+04   -0.65205E-01   -0.80948E-01  1627   0.157E+00    0.262E+00
RMM:   3    -0.116250544268E+04   -0.10351E-01   -0.19675E-01  1739   0.650E-01    0.224E+00
RMM:   4    -0.116248630882E+04    0.19134E-01   -0.43229E-02  1611   0.318E-01    0.157E+00
RMM:   5    -0.116248038197E+04    0.59269E-02   -0.48922E-02  1584   0.271E-01    0.877E-01
RMM:   6    -0.116247940608E+04    0.97589E-03   -0.16256E-02  1602   0.181E-01    0.455E-01
RMM:   7    -0.116247734174E+04    0.20643E-02   -0.48802E-03  1665   0.952E-02    0.260E-01
RMM:   8    -0.116247661934E+04    0.72239E-03   -0.69498E-03  1639   0.891E-02    0.146E-01
RMM:   9    -0.116247647785E+04    0.14150E-03   -0.80888E-04  1618   0.467E-02    0.931E-02
RMM:  10    -0.116247645644E+04    0.21405E-04   -0.30378E-04  1669   0.245E-02    0.543E-02
RMM:  11    -0.116247640715E+04    0.49288E-04   -0.97065E-05  1635   0.138E-02    0.351E-02
RMM:  12    -0.116247640466E+04    0.24900E-05   -0.88347E-05  1560   0.122E-02    0.211E-02
RMM:  13    -0.116247639859E+04    0.60696E-05   -0.21564E-05  1617   0.639E-03    0.141E-02
RMM:  14    -0.116247639739E+04    0.12043E-05   -0.13295E-05  1589   0.453E-03    0.957E-03
RMM:  15    -0.116247639732E+04    0.68576E-07   -0.19972E-06  1074   0.219E-03
   4 F= -.11624764E+04 E0= -.11624764E+04  d E =-.285864E-01  mag=     4.0000
       N       E                     dE             d eps       ncg     rms          rms(c)
DAV:   1    -0.116252358103E+04   -0.47184E-01   -0.84909E+00  1632   0.468E+00    0.135E+00
RMM:   2    -0.116253698316E+04   -0.13402E-01   -0.16567E-01  1634   0.703E-01    0.115E+00
RMM:   3    -0.116253822259E+04   -0.12394E-02   -0.39952E-02  1715   0.294E-01    0.924E-01
RMM:   4    -0.116253439717E+04    0.38254E-02   -0.93743E-03  1599   0.147E-01    0.595E-01
RMM:   5    -0.116253360129E+04    0.79588E-03   -0.86905E-03  1570   0.120E-01    0.292E-01
RMM:   6    -0.116253369463E+04   -0.93336E-04   -0.21558E-03  1652   0.692E-02    0.128E-01
RMM:   7    -0.116253349224E+04    0.20238E-03   -0.52802E-04  1681   0.330E-02    0.793E-02
RMM:   8    -0.116253333229E+04    0.15996E-03   -0.98115E-04  1599   0.343E-02    0.444E-02
RMM:   9    -0.116253330879E+04    0.23498E-04   -0.14236E-04  1660   0.185E-02    0.252E-02
RMM:  10    -0.116253330473E+04    0.40629E-05   -0.33500E-05  1716   0.829E-03    0.189E-02
RMM:  11    -0.116253329900E+04    0.57292E-05   -0.15505E-05  1581   0.508E-03    0.119E-02
RMM:  12    -0.116253329968E+04   -0.68143E-06   -0.21690E-05  1550   0.576E-03    0.613E-03
RMM:  13    -0.116253329917E+04    0.50739E-06   -0.24262E-06  1103   0.257E-03
   5 F= -.11625333E+04 E0= -.11625333E+04  d E =-.854882E-01  mag=     4.0000
       N       E                     dE             d eps       ncg     rms          rms(c)
DAV:   1    -0.116254642404E+04   -0.13124E-01   -0.13827E+01  1632   0.636E+00    0.119E+00
RMM:   2    -0.116256628542E+04   -0.19861E-01   -0.26213E-01  1621   0.908E-01    0.112E+00
RMM:   3    -0.116256703565E+04   -0.75023E-03   -0.56025E-02  1725   0.373E-01    0.988E-01
RMM:   4    -0.116255620425E+04    0.10831E-01   -0.23444E-02  1582   0.218E-01    0.592E-01
RMM:   5    -0.116255486469E+04    0.13396E-02   -0.13377E-02  1605   0.152E-01    0.370E-01
RMM:   6    -0.116255425134E+04    0.61335E-03   -0.35266E-03  1715   0.868E-02    0.207E-01
RMM:   7    -0.116255397904E+04    0.27230E-03   -0.13187E-03  1658   0.472E-02    0.111E-01
RMM:   8    -0.116255385602E+04    0.12302E-03   -0.66236E-04  1634   0.319E-02    0.572E-02
RMM:   9    -0.116255381032E+04    0.45700E-04   -0.39021E-04  1665   0.253E-02    0.344E-02
RMM:  10    -0.116255379050E+04    0.19822E-04   -0.61208E-05  1663   0.116E-02    0.237E-02
RMM:  11    -0.116255378028E+04    0.10216E-04   -0.51127E-05  1568   0.877E-03    0.116E-02
RMM:  12    -0.116255378025E+04    0.37529E-07   -0.99116E-06  1711   0.442E-03
   6 F= -.11625538E+04 E0= -.11625538E+04  d E =-.204811E-01  mag=     4.0000
       N       E                     dE             d eps       ncg     rms          rms(c)
DAV:   1    -0.116256421768E+04   -0.10437E-01   -0.19329E+00  1632   0.238E+00    0.458E-01
RMM:   2    -0.116256695491E+04   -0.27372E-02   -0.36427E-02  1626   0.339E-01    0.417E-01
RMM:   3    -0.116256694564E+04    0.92710E-05   -0.76813E-03  1717   0.139E-01    0.358E-01
RMM:   4    -0.116256550222E+04    0.14434E-02   -0.32956E-03  1576   0.821E-02    0.210E-01
RMM:   5    -0.116256534990E+04    0.15232E-03   -0.18193E-03  1602   0.567E-02    0.128E-01
RMM:   6    -0.116256529734E+04    0.52553E-04   -0.42804E-04  1724   0.307E-02    0.689E-02
RMM:   7    -0.116256527699E+04    0.20349E-04   -0.15555E-04  1659   0.164E-02    0.378E-02
RMM:   8    -0.116256526112E+04    0.15871E-04   -0.83655E-05  1618   0.114E-02    0.188E-02
RMM:   9    -0.116256525615E+04    0.49735E-05   -0.46045E-05  1666   0.877E-03    0.119E-02
RMM:  10    -0.116256525436E+04    0.17878E-05   -0.67966E-06  1582   0.394E-03    0.843E-03
RMM:  11    -0.116256525370E+04    0.65745E-06   -0.69417E-06  1492   0.324E-03
   7 F= -.11625653E+04 E0= -.11625653E+04  d E =-.319545E-01  mag=     4.0000
       N       E                     dE             d eps       ncg     rms          rms(c)
DAV:   1    -0.116256876837E+04   -0.35140E-02   -0.51230E+00  1664   0.401E+00    0.577E-01
RMM:   2    -0.116257682227E+04   -0.80539E-02   -0.96473E-02  1613   0.542E-01    0.515E-01
RMM:   3    -0.116257722815E+04   -0.40588E-03   -0.18689E-02  1689   0.218E-01    0.442E-01
RMM:   4    -0.116257512671E+04    0.21014E-02   -0.74924E-03  1627   0.123E-01    0.255E-01
RMM:   5    -0.116257497340E+04    0.15330E-03   -0.32244E-03  1695   0.752E-02    0.169E-01
RMM:   6    -0.116257481910E+04    0.15431E-03   -0.66473E-04  1718   0.385E-02    0.909E-02
RMM:   7    -0.116257480491E+04    0.14188E-04   -0.28111E-04  1608   0.233E-02    0.470E-02
RMM:   8    -0.116257477878E+04    0.26130E-04   -0.16905E-04  1626   0.160E-02    0.286E-02
RMM:   9    -0.116257476789E+04    0.10884E-04   -0.92412E-05  1688   0.123E-02    0.156E-02
RMM:  10    -0.116257476234E+04    0.55515E-05   -0.12036E-05  1602   0.547E-03    0.112E-02
RMM:  11    -0.116257476016E+04    0.21851E-05   -0.12446E-05  1551   0.456E-03    0.549E-03
RMM:  12    -0.116257476007E+04    0.89989E-07   -0.17284E-06  1039   0.209E-03
   8 F= -.11625748E+04 E0= -.11625748E+04  d E =-.950636E-02  mag=     4.0000
       N       E                     dE             d eps       ncg     rms          rms(c)
DAV:   1    -0.116257741189E+04   -0.26517E-02   -0.59017E-01  1696   0.136E+00    0.197E-01
RMM:   2    -0.116257831317E+04   -0.90127E-03   -0.11090E-02  1616   0.184E-01    0.175E-01
RMM:   3    -0.116257835144E+04   -0.38272E-04   -0.21448E-03  1683   0.738E-02    0.149E-01
RMM:   4    -0.116257812763E+04    0.22381E-03   -0.86340E-04  1628   0.419E-02    0.863E-02
RMM:   5    -0.116257811599E+04    0.11636E-04   -0.37645E-04  1701   0.257E-02    0.568E-02
RMM:   6    -0.116257811022E+04    0.57706E-05   -0.76504E-05  1689   0.131E-02    0.305E-02
RMM:   7    -0.116257811168E+04   -0.14551E-05   -0.32715E-05  1598   0.798E-03    0.158E-02
RMM:   8    -0.116257810900E+04    0.26783E-05   -0.19558E-05  1573   0.548E-03    0.959E-03
RMM:   9    -0.116257810833E+04    0.66761E-06   -0.11971E-05  1615   0.439E-03    0.547E-03
RMM:  10    -0.116257810771E+04    0.62006E-06   -0.16019E-06  1040   0.198E-03
   9 F= -.11625781E+04 E0= -.11625781E+04  d E =-.128540E-01  mag=     4.0000
       N       E                     dE             d eps       ncg     rms          rms(c)
DAV:   1    -0.116258064441E+04   -0.25361E-02   -0.27072E+00  1696   0.304E+00    0.400E-01
RMM:   2    -0.116258553975E+04   -0.48953E-02   -0.54500E-02  1629   0.384E-01    0.333E-01
RMM:   3    -0.116258612830E+04   -0.58855E-03   -0.10695E-02  1684   0.154E-01    0.273E-01
RMM:   4    -0.116258565057E+04    0.47773E-03   -0.29823E-03  1664   0.784E-02    0.163E-01
RMM:   5    -0.116258559719E+04    0.53386E-04   -0.92957E-04  1744   0.422E-02    0.108E-01
RMM:   6    -0.116258559587E+04    0.13141E-05   -0.32263E-04  1582   0.270E-02    0.396E-02
RMM:   7    -0.116258560719E+04   -0.11317E-04   -0.85350E-05  1733   0.137E-02    0.275E-02
RMM:   8    -0.116258559499E+04    0.12203E-04   -0.35470E-05  1615   0.772E-03    0.195E-02
RMM:   9    -0.116258559140E+04    0.35903E-05   -0.39386E-05  1561   0.779E-03    0.878E-03
RMM:  10    -0.116258558953E+04    0.18617E-05   -0.45154E-06  1440   0.341E-03    0.652E-03
RMM:  11    -0.116258558918E+04    0.35927E-06   -0.28835E-06  1156   0.218E-03
  10 F= -.11625856E+04 E0= -.11625856E+04  d E =-.748147E-02  mag=     4.0000
       N       E                     dE             d eps       ncg     rms          rms(c)
DAV:   1    -0.116258589485E+04   -0.30532E-03   -0.10472E-01  1760   0.597E-01    0.791E-02
RMM:   2    -0.116258606086E+04   -0.16601E-03   -0.20426E-03  1631   0.745E-02    0.661E-02
RMM:   3    -0.116258608123E+04   -0.20364E-04   -0.39475E-04  1683   0.299E-02    0.535E-02
RMM:   4    -0.116258606898E+04    0.12250E-04   -0.11930E-04  1655   0.156E-02    0.314E-02
RMM:   5    -0.116258606969E+04   -0.71356E-06   -0.36472E-05  1702   0.837E-03    0.207E-02
RMM:   6    -0.116258607424E+04   -0.45500E-05   -0.11772E-05  1564   0.521E-03    0.775E-03
RMM:   7    -0.116258607490E+04   -0.65719E-06   -0.34915E-06  1240   0.275E-03
  11 F= -.11625861E+04 E0= -.11625861E+04  d E =-.796719E-02  mag=     4.0000
       N       E                     dE             d eps       ncg     rms          rms(c)
DAV:   1    -0.116258683957E+04   -0.76533E-03   -0.15321E+00  1696   0.238E+00    0.345E-01
RMM:   2    -0.116259035503E+04   -0.35155E-02   -0.39920E-02  1639   0.313E-01    0.275E-01
RMM:   3    -0.116259073035E+04   -0.37533E-03   -0.77719E-03  1693   0.127E-01    0.214E-01
RMM:   4    -0.116259036678E+04    0.36357E-03   -0.20757E-03  1660   0.646E-02    0.134E-01
RMM:   5    -0.116259029431E+04    0.72473E-04   -0.69339E-04  1706   0.364E-02    0.856E-02
RMM:   6    -0.116259031828E+04   -0.23976E-04   -0.31277E-04  1584   0.255E-02    0.342E-02
RMM:   7    -0.116259032145E+04   -0.31609E-05   -0.61181E-05  1702   0.122E-02    0.215E-02
RMM:   8    -0.116259031109E+04    0.10357E-04   -0.36800E-05  1559   0.771E-03    0.143E-02
RMM:   9    -0.116259031076E+04    0.32589E-06   -0.19041E-05  1626   0.578E-03    0.643E-03
RMM:  10    -0.116259031009E+04    0.66898E-06   -0.21554E-06  1053   0.242E-03
  12 F= -.11625903E+04 E0= -.11625903E+04  d E =-.423520E-02  mag=     4.0000
       N       E                     dE             d eps       ncg     rms          rms(c)
DAV:   1    -0.116259038498E+04   -0.74215E-04   -0.41874E-02  1792   0.394E-01    0.572E-02
RMM:   2    -0.116259047128E+04   -0.86306E-04   -0.11001E-03  1640   0.522E-02    0.455E-02
RMM:   3    -0.116259048186E+04   -0.10576E-04   -0.21214E-04  1686   0.212E-02    0.352E-02
RMM:   4    -0.116259047373E+04    0.81312E-05   -0.62202E-05  1663   0.111E-02    0.218E-02
RMM:   5    -0.116259047364E+04    0.86642E-07   -0.20068E-05  1660   0.613E-03    0.141E-02
RMM:   6    -0.116259047630E+04   -0.26534E-05   -0.85241E-06  1544   0.429E-03    0.580E-03
RMM:   7    -0.116259047656E+04   -0.26500E-06   -0.18474E-06  1026   0.214E-03
  13 F= -.11625905E+04 E0= -.11625905E+04  d E =-.440166E-02  mag=     4.0000
       N       E                     dE             d eps       ncg     rms          rms(c)
DAV:   1    -0.116258929936E+04    0.11769E-02   -0.81286E-01  1760   0.183E+00    0.288E-01
RMM:   2    -0.116259179342E+04   -0.24941E-02   -0.28055E-02  1643   0.239E-01    0.216E-01
RMM:   3    -0.116259215713E+04   -0.36371E-03   -0.53514E-03  1693   0.972E-02    0.155E-01
RMM:   4    -0.116259202680E+04    0.13033E-03   -0.12461E-03  1690   0.476E-02    0.103E-01
RMM:   5    -0.116259198813E+04    0.38666E-04   -0.37231E-04  1688   0.264E-02    0.668E-02
RMM:   6    -0.116259201917E+04   -0.31038E-04   -0.24290E-04  1554   0.220E-02    0.260E-02
RMM:   7    -0.116259202257E+04   -0.33955E-05   -0.39242E-05  1701   0.101E-02    0.164E-02
RMM:   8    -0.116259201685E+04    0.57155E-05   -0.19049E-05  1585   0.575E-03    0.114E-02
RMM:   9    -0.116259201730E+04   -0.44792E-06   -0.10802E-05  1579   0.438E-03    0.458E-03
RMM:  10    -0.116259201717E+04    0.13160E-06   -0.12579E-06  1024   0.189E-03
  14 F= -.11625920E+04 E0= -.11625920E+04  d E =-.154061E-02  mag=     4.0000
       N       E                     dE             d eps       ncg     rms          rms(c)
DAV:   1    -0.116259212993E+04   -0.11263E-03   -0.76362E-02  1824   0.561E-01    0.884E-02
RMM:   2    -0.116259235391E+04   -0.22398E-03   -0.26423E-03  1646   0.737E-02    0.662E-02
RMM:   3    -0.116259238125E+04   -0.27341E-04   -0.50361E-04  1699   0.299E-02    0.477E-02
RMM:   4    -0.116259237231E+04    0.89383E-05   -0.11955E-04  1674   0.150E-02    0.313E-02
RMM:   5    -0.116259237138E+04    0.92758E-06   -0.37358E-05  1665   0.831E-03    0.205E-02
RMM:   6    -0.116259237810E+04   -0.67174E-05   -0.22416E-05  1554   0.680E-03    0.813E-03
RMM:   7    -0.116259237912E+04   -0.10165E-05   -0.40464E-06  1321   0.320E-03    0.533E-03
RMM:   8    -0.116259237854E+04    0.57746E-06   -0.20733E-06  1081   0.189E-03
  15 F= -.11625924E+04 E0= -.11625924E+04  d E =-.190198E-02  mag=     4.0000
