       N       E                     dE             d eps       ncg     rms          rms(c)
DAV:   1     0.498717153260E+04    0.49872E+04   -0.17880E+05  1824   0.956E+02
DAV:   2    -0.135772274862E+02   -0.50007E+04   -0.45881E+04  2432   0.219E+02
DAV:   3    -0.119705972492E+04   -0.11835E+04   -0.11773E+04  1984   0.116E+02
DAV:   4    -0.124816613787E+04   -0.51106E+02   -0.50757E+02  1952   0.323E+01
DAV:   5    -0.124954018603E+04   -0.13740E+01   -0.13700E+01  2336   0.504E+00    0.847E+01
RMM:   6    -0.123743663382E+04    0.12104E+02   -0.11300E+02  1645   0.165E+01    0.981E+01
RMM:   7    -0.122375212675E+04    0.13685E+02   -0.19378E+01  1543   0.698E+00    0.720E+01
RMM:   8    -0.120387031118E+04    0.19882E+02   -0.21418E+01  1579   0.603E+00    0.448E+01
RMM:   9    -0.118560469907E+04    0.18266E+02   -0.20378E+01  1614   0.626E+00    0.290E+01
RMM:  10    -0.117769871960E+04    0.79060E+01   -0.96673E+00  1542   0.474E+00    0.225E+01
RMM:  11    -0.117241971025E+04    0.52790E+01   -0.26989E+01  1717   0.657E+00    0.135E+01
RMM:  12    -0.117321689406E+04   -0.79718E+00   -0.34005E+00  1592   0.296E+00    0.822E+00
RMM:  13    -0.117306887500E+04    0.14802E+00   -0.45777E-01  1673   0.128E+00    0.635E+00
RMM:  14    -0.117269452051E+04    0.37435E+00   -0.73751E-01  1539   0.123E+00    0.293E+00
RMM:  15    -0.117267515661E+04    0.19364E-01   -0.32906E-01  1536   0.781E-01    0.235E+00
RMM:  16    -0.117266955943E+04    0.55972E-02   -0.57802E-02  1563   0.419E-01    0.136E+00
RMM:  17    -0.117267357245E+04   -0.40130E-02   -0.18581E-02  1623   0.239E-01    0.820E-01
RMM:  18    -0.117267264747E+04    0.92498E-03   -0.11079E-02  1581   0.143E-01    0.529E-01
RMM:  19    -0.117267281893E+04   -0.17146E-03   -0.24497E-03  1589   0.815E-02    0.409E-01
RMM:  20    -0.117267245824E+04    0.36070E-03   -0.93660E-04  1687   0.445E-02    0.316E-01
RMM:  21    -0.117267221600E+04    0.24223E-03   -0.33492E-04  1607   0.247E-02    0.231E-01
RMM:  22    -0.117267239826E+04   -0.18226E-03   -0.14713E-04  1598   0.173E-02    0.182E-01
RMM:  23    -0.117267237759E+04    0.20674E-04   -0.11230E-04  1588   0.142E-02    0.112E-01
RMM:  24    -0.117267235834E+04    0.19248E-04   -0.75728E-05  1635   0.109E-02    0.784E-02
RMM:  25    -0.117267235773E+04    0.61226E-06   -0.28760E-05  1679   0.730E-03    0.454E-02
RMM:  26    -0.117267236823E+04   -0.10501E-04   -0.13853E-05  1532   0.498E-03    0.331E-02
RMM:  27    -0.117267237887E+04   -0.10645E-04   -0.74004E-06  1455   0.411E-03    0.175E-02
RMM:  28    -0.117267238163E+04   -0.27588E-05   -0.49954E-06  1187   0.316E-03    0.937E-03
RMM:  29    -0.117267238403E+04   -0.24036E-05   -0.17640E-06  1073   0.204E-03    0.278E-03
RMM:  30    -0.117267238426E+04   -0.22913E-06   -0.46693E-07  1006   0.131E-03
   1 F= -.11797727E+04 E0= -.11797727E+04  d E =-.117977E+04  mag=     0.0000
       N       E                     dE             d eps       ncg     rms          rms(c)
DAV:   1    -0.117266758297E+04    0.48011E-02   -0.44183E-01  1632   0.163E+00    0.199E-01
RMM:   2    -0.117267029578E+04   -0.27128E-02   -0.30543E-02  1617   0.273E-01    0.157E-01
RMM:   3    -0.117267053437E+04   -0.23859E-03   -0.45292E-03  1770   0.102E-01    0.139E-01
RMM:   4    -0.117267045522E+04    0.79148E-04   -0.82405E-04  1898   0.399E-02    0.125E-01
RMM:   5    -0.117267025916E+04    0.19606E-03   -0.83414E-04  1563   0.360E-02    0.591E-02
RMM:   6    -0.117267032014E+04   -0.60981E-04   -0.41186E-04  1580   0.268E-02    0.399E-02
RMM:   7    -0.117267029604E+04    0.24102E-04   -0.66621E-05  1549   0.128E-02    0.246E-02
RMM:   8    -0.117267031991E+04   -0.23878E-04   -0.36442E-05  1568   0.893E-03    0.112E-02
RMM:   9    -0.117267031980E+04    0.11613E-06   -0.84418E-06  1537   0.458E-03
   2 F= -.11797711E+04 E0= -.11797711E+04  d E =0.152598E-02  mag=    -0.0000
       N       E                     dE             d eps       ncg     rms          rms(c)
DAV:   1    -0.117267169618E+04   -0.13763E-02   -0.19294E-01  1632   0.107E+00    0.131E-01
RMM:   2    -0.117267275911E+04   -0.10629E-02   -0.12350E-02  1584   0.176E-01    0.102E-01
RMM:   3    -0.117267282704E+04   -0.67923E-04   -0.17246E-03  1746   0.644E-02    0.897E-02
RMM:   4    -0.117267278353E+04    0.43501E-04   -0.31207E-04  1846   0.251E-02    0.792E-02
RMM:   5    -0.117267271839E+04    0.65141E-04   -0.36787E-04  1563   0.243E-02    0.351E-02
RMM:   6    -0.117267274970E+04   -0.31305E-04   -0.14899E-04  1578   0.168E-02    0.242E-02
RMM:   7    -0.117267274326E+04    0.64383E-05   -0.20185E-05  1539   0.779E-03    0.152E-02
RMM:   8    -0.117267275135E+04   -0.80937E-05   -0.18144E-05  1540   0.577E-03    0.674E-03
RMM:   9    -0.117267275140E+04   -0.46151E-07   -0.30157E-06  1116   0.308E-03
   3 F= -.11797732E+04 E0= -.11797732E+04  d E =-.549362E-03  mag=    -0.0000
       N       E                     dE             d eps       ncg     rms          rms(c)
DAV:   1    -0.117267081287E+04    0.19385E-02   -0.21630E-01  1760   0.125E+00    0.136E-01
RMM:   2    -0.117267268026E+04   -0.18674E-02   -0.20461E-02  1600   0.199E-01    0.847E-02
RMM:   3    -0.117267282867E+04   -0.14841E-03   -0.24444E-03  1707   0.696E-02    0.737E-02
RMM:   4    -0.117267284722E+04   -0.18546E-04   -0.39959E-04  1777   0.257E-02    0.640E-02
RMM:   5    -0.117267286172E+04   -0.14500E-04   -0.82298E-05  1591   0.131E-02    0.450E-02
RMM:   6    -0.117267293923E+04   -0.77509E-04   -0.12461E-04  1549   0.151E-02    0.185E-02
RMM:   7    -0.117267294508E+04   -0.58494E-05   -0.15567E-05  1558   0.719E-03    0.133E-02
RMM:   8    -0.117267295217E+04   -0.70902E-05   -0.10774E-05  1499   0.440E-03    0.819E-03
RMM:   9    -0.117267295667E+04   -0.45082E-05   -0.22144E-06  1056   0.272E-03    0.538E-03
RMM:  10    -0.117267295692E+04   -0.24792E-06   -0.18499E-06  1032   0.223E-03
   4 F= -.11797737E+04 E0= -.11797737E+04  d E =-.485455E-03  mag=     0.0000
