       N       E                     dE             d eps       ncg     rms          rms(c)
DAV:   1     0.492561498360E+04    0.49256E+04   -0.17069E+05  1836   0.910E+02
DAV:   2    -0.540605949252E+02   -0.49797E+04   -0.45377E+04  2520   0.208E+02
DAV:   3    -0.119631522006E+04   -0.11423E+04   -0.11371E+04  2160   0.110E+02
DAV:   4    -0.124121217699E+04   -0.44897E+02   -0.44685E+02  2052   0.287E+01
DAV:   5    -0.124235399488E+04   -0.11418E+01   -0.11395E+01  2340   0.424E+00    0.671E+01
RMM:   6    -0.122433342410E+04    0.18021E+02   -0.29139E+01  1584   0.512E+00    0.551E+01
RMM:   7    -0.120909720671E+04    0.15236E+02   -0.80880E+00  1584   0.322E+00    0.425E+01
RMM:   8    -0.118463422987E+04    0.24463E+02   -0.28602E+01  1584   0.612E+00    0.279E+01
RMM:   9    -0.117333490658E+04    0.11299E+02   -0.20023E+01  1584   0.511E+00    0.195E+01
RMM:  10    -0.117370964365E+04   -0.37474E+00   -0.19884E+01  1584   0.503E+00    0.868E+00
RMM:  11    -0.117335467047E+04    0.35497E+00   -0.69687E-01  1629   0.109E+00    0.606E+00
RMM:  12    -0.117294892630E+04    0.40574E+00   -0.15093E+00  1584   0.128E+00    0.325E+00
RMM:  13    -0.117268485403E+04    0.26407E+00   -0.47480E-01  1584   0.719E-01    0.769E-01
RMM:  14    -0.117268387107E+04    0.98295E-03   -0.22650E-02  1637   0.173E-01    0.537E-01
RMM:  15    -0.117268283224E+04    0.10388E-02   -0.10081E-02  1600   0.109E-01    0.282E-01
RMM:  16    -0.117268242239E+04    0.40985E-03   -0.40515E-03  1584   0.701E-02    0.208E-01
RMM:  17    -0.117268229497E+04    0.12742E-03   -0.11116E-03  1435   0.367E-02    0.115E-01
RMM:  18    -0.117268233020E+04   -0.35230E-04   -0.67958E-04  1330   0.289E-02
   1 F= -.11800308E+04 E0= -.11800308E+04  d E =-.118003E+04  mag=     0.0027
       N       E                     dE             d eps       ncg     rms          rms(c)
DAV:   1    -0.117268068816E+04    0.16068E-02   -0.71735E-01  1656   0.124E+00    0.317E-01
RMM:   2    -0.117268206095E+04   -0.13728E-02   -0.17521E-02  1584   0.179E-01    0.286E-01
RMM:   3    -0.117268182735E+04    0.23360E-03   -0.10937E-03  1471   0.399E-02    0.248E-01
RMM:   4    -0.117268148219E+04    0.34515E-03   -0.25451E-03  1584   0.567E-02    0.805E-02
RMM:   5    -0.117268148244E+04   -0.25047E-06   -0.11329E-04  1049   0.148E-02
   2 F= -.11800306E+04 E0= -.11800306E+04  d E =0.210327E-03  mag=     0.0004
       N       E                     dE             d eps       ncg     rms          rms(c)
DAV:   1    -0.117268325360E+04   -0.17714E-02   -0.20929E-01  1692   0.669E-01    0.166E-01
RMM:   2    -0.117268357477E+04   -0.32117E-03   -0.44288E-03  1584   0.911E-02    0.146E-01
RMM:   3    -0.117268346995E+04    0.10481E-03   -0.25939E-04  1119   0.208E-02    0.121E-01
RMM:   4    -0.117268338455E+04    0.85403E-04   -0.92059E-04  1563   0.342E-02
   3 F= -.11800322E+04 E0= -.11800322E+04  d E =-.134416E-02  mag=    -0.0001
       N       E                     dE             d eps       ncg     rms          rms(c)
DAV:   1    -0.117268467054E+04   -0.12006E-02   -0.35203E-01  1764   0.824E-01    0.206E-01
RMM:   2    -0.117268516148E+04   -0.49094E-03   -0.76641E-03  1584   0.107E-01    0.172E-01
RMM:   3    -0.117268493104E+04    0.23044E-03   -0.44158E-04  1180   0.255E-02    0.137E-01
RMM:   4    -0.117268476670E+04    0.16434E-03   -0.14627E-03  1584   0.427E-02    0.403E-02
RMM:   5    -0.117268474483E+04    0.21871E-04   -0.31525E-05  1007   0.848E-03
   4 F= -.11800338E+04 E0= -.11800338E+04  d E =-.160163E-02  mag=    -0.0000
       N       E                     dE             d eps       ncg     rms          rms(c)
DAV:   1    -0.117268473971E+04    0.26991E-04   -0.10726E-02  1836   0.144E-01    0.469E-02
RMM:   2    -0.117268475282E+04   -0.13104E-04   -0.22271E-04  1050   0.200E-02
   5 F= -.11800338E+04 E0= -.11800338E+04  d E =-.165222E-02  mag=    -0.0000
       N       E                     dE             d eps       ncg     rms          rms(c)
DAV:   1    -0.117268593172E+04   -0.11920E-02   -0.17065E-01  1728   0.564E-01    0.141E-01
RMM:   2    -0.117268611444E+04   -0.18272E-03   -0.35096E-03  1584   0.732E-02    0.120E-01
RMM:   3    -0.117268598537E+04    0.12907E-03   -0.17988E-04  1055   0.169E-02    0.949E-02
RMM:   4    -0.117268594403E+04    0.41337E-04   -0.82143E-04  1564   0.320E-02
   6 F= -.11800352E+04 E0= -.11800352E+04  d E =-.140058E-02  mag=     0.0000
       N       E                     dE             d eps       ncg     rms          rms(c)
DAV:   1    -0.117268625282E+04   -0.26745E-03   -0.26083E-01  1728   0.696E-01    0.155E-01
RMM:   2    -0.117268657959E+04   -0.32678E-03   -0.51145E-03  1584   0.910E-02    0.131E-01
RMM:   3    -0.117268645317E+04    0.12643E-03   -0.21223E-04  1082   0.188E-02    0.108E-01
RMM:   4    -0.117268640771E+04    0.45462E-04   -0.99400E-04  1580   0.357E-02
   7 F= -.11800359E+04 E0= -.11800359E+04  d E =-.212867E-02  mag=    -0.0000
       N       E                     dE             d eps       ncg     rms          rms(c)
DAV:   1    -0.117268718275E+04   -0.72958E-03   -0.16604E-01  1728   0.556E-01    0.105E-01
RMM:   2    -0.117268739679E+04   -0.21404E-03   -0.29991E-03  1584   0.710E-02    0.858E-02
RMM:   3    -0.117268737986E+04    0.16929E-04   -0.11324E-04  1038   0.142E-02
   8 F= -.11800373E+04 E0= -.11800373E+04  d E =-.134100E-02  mag=     0.0000
       N       E                     dE             d eps       ncg     rms          rms(c)
DAV:   1    -0.117268605728E+04    0.13395E-02   -0.14750E+00  1584   0.165E+00    0.288E-01
RMM:   2    -0.117268799269E+04   -0.19354E-02   -0.24696E-02  1584   0.202E-01    0.235E-01
RMM:   3    -0.117268785768E+04    0.13501E-03   -0.10203E-03  1390   0.400E-02    0.197E-01
RMM:   4    -0.117268809615E+04   -0.23847E-03   -0.22118E-03  1568   0.535E-02    0.480E-02
RMM:   5    -0.117268804558E+04    0.50567E-04   -0.42774E-05  1050   0.102E-02
   9 F= -.11800391E+04 E0= -.11800391E+04  d E =-.314410E-02  mag=     0.0000
       N       E                     dE             d eps       ncg     rms          rms(c)
DAV:   1    -0.117268849682E+04   -0.40067E-03   -0.35221E-02  1800   0.257E-01    0.510E-02
RMM:   2    -0.117268853833E+04   -0.41506E-04   -0.70566E-04  1346   0.365E-02
  10 F= -.11800397E+04 E0= -.11800397E+04  d E =-.612409E-03  mag=     0.0000
       N       E                     dE             d eps       ncg     rms          rms(c)
DAV:   1    -0.117268960223E+04   -0.11054E-02   -0.30476E-01  1584   0.749E-01    0.158E-01
RMM:   2    -0.117268992812E+04   -0.32589E-03   -0.51805E-03  1584   0.929E-02    0.133E-01
RMM:   3    -0.117268988496E+04    0.43165E-04   -0.21379E-04  1106   0.197E-02
  11 F= -.11800414E+04 E0= -.11800414E+04  d E =-.232434E-02  mag=    -0.0000
       N       E                     dE             d eps       ncg     rms          rms(c)
DAV:   1    -0.117269035183E+04   -0.42371E-03   -0.11875E+00  1584   0.148E+00    0.258E-01
RMM:   2    -0.117269173853E+04   -0.13867E-02   -0.18440E-02  1584   0.175E-01    0.214E-01
RMM:   3    -0.117269167484E+04    0.63681E-04   -0.79138E-04  1330   0.354E-02
  12 F= -.11800440E+04 E0= -.11800440E+04  d E =-.487316E-02  mag=     0.0000
       N       E                     dE             d eps       ncg     rms          rms(c)
DAV:   1    -0.117268584767E+04    0.58909E-02   -0.47642E+00  1584   0.296E+00    0.501E-01
RMM:   2    -0.117269141670E+04   -0.55690E-02   -0.73855E-02  1584   0.353E-01    0.419E-01
RMM:   3    -0.117269111270E+04    0.30401E-03   -0.33080E-03  1672   0.716E-02    0.355E-01
RMM:   4    -0.117269218657E+04   -0.10739E-02   -0.65125E-03  1588   0.903E-02    0.700E-02
RMM:   5    -0.117269201918E+04    0.16739E-03   -0.11472E-04  1082   0.157E-02    0.617E-02
RMM:   6    -0.117269190465E+04    0.11454E-03   -0.37918E-04  1364   0.189E-02    0.321E-02
RMM:   7    -0.117269191358E+04   -0.89349E-05   -0.39359E-05  1008   0.804E-03
  13 F= -.11800458E+04 E0= -.11800458E+04  d E =-.674335E-02  mag=     0.0000
       N       E                     dE             d eps       ncg     rms          rms(c)
DAV:   1    -0.117269311663E+04   -0.12120E-02   -0.24469E-01  1728   0.666E-01    0.118E-01
RMM:   2    -0.117269340602E+04   -0.28939E-03   -0.42638E-03  1584   0.845E-02    0.978E-02
RMM:   3    -0.117269336412E+04    0.41905E-04   -0.16396E-04  1072   0.173E-02
  14 F= -.11800475E+04 E0= -.11800475E+04  d E =-.168568E-02  mag=    -0.0000
       N       E                     dE             d eps       ncg     rms          rms(c)
DAV:   1    -0.117269416589E+04   -0.75987E-03   -0.21291E+00  1584   0.196E+00    0.353E-01
RMM:   2    -0.117269655227E+04   -0.23864E-02   -0.33816E-02  1584   0.236E-01    0.295E-01
RMM:   3    -0.117269633954E+04    0.21272E-03   -0.14665E-03  1496   0.475E-02    0.248E-01
RMM:   4    -0.117269676597E+04   -0.42643E-03   -0.28417E-03  1582   0.593E-02    0.555E-02
RMM:   5    -0.117269673914E+04    0.26831E-04   -0.70777E-05  1072   0.117E-02
  15 F= -.11800516E+04 E0= -.11800516E+04  d E =-.580626E-02  mag=    -0.0000
       N       E                     dE             d eps       ncg     rms          rms(c)
DAV:   1    -0.117268747737E+04    0.92886E-02   -0.86212E+00  1584   0.396E+00    0.675E-01
RMM:   2    -0.117269774315E+04   -0.10266E-01   -0.13994E-01  1584   0.489E-01    0.570E-01
RMM:   3    -0.117269679129E+04    0.95186E-03   -0.61366E-03  1660   0.978E-02    0.486E-01
RMM:   4    -0.117269822131E+04   -0.14300E-02   -0.12761E-02  1584   0.122E-01    0.120E-01
RMM:   5    -0.117269801423E+04    0.20709E-03   -0.34414E-04  1194   0.240E-02    0.931E-02
RMM:   6    -0.117269790407E+04    0.11015E-03   -0.38144E-04  1340   0.200E-02    0.537E-02
RMM:   7    -0.117269785062E+04    0.53455E-04   -0.27994E-04  1206   0.175E-02
  16 F= -.11800544E+04 E0= -.11800544E+04  d E =-.858700E-02  mag=    -0.0000
       N       E                     dE             d eps       ncg     rms          rms(c)
DAV:   1    -0.117269994630E+04   -0.20422E-02   -0.58617E-01  1584   0.104E+00    0.197E-01
RMM:   2    -0.117270080131E+04   -0.85501E-03   -0.11997E-02  1584   0.135E-01    0.155E-01
RMM:   3    -0.117270069132E+04    0.10999E-03   -0.46505E-04  1216   0.269E-02    0.130E-01
RMM:   4    -0.117270074246E+04   -0.51140E-04   -0.76988E-04  1432   0.303E-02
  17 F= -.11800578E+04 E0= -.11800578E+04  d E =-.333654E-02  mag=     0.0000
       N       E                     dE             d eps       ncg     rms          rms(c)
DAV:   1    -0.117269867965E+04    0.20117E-02   -0.23822E+00  1584   0.209E+00    0.401E-01
RMM:   2    -0.117270184922E+04   -0.31696E-02   -0.45212E-02  1584   0.264E-01    0.322E-01
RMM:   3    -0.117270152846E+04    0.32076E-03   -0.17580E-03  1508   0.514E-02    0.269E-01
RMM:   4    -0.117270191049E+04   -0.38203E-03   -0.22853E-03  1542   0.523E-02    0.103E-01
RMM:   5    -0.117270197991E+04   -0.69414E-04   -0.26066E-04  1154   0.185E-02
  18 F= -.11800599E+04 E0= -.11800599E+04  d E =-.551796E-02  mag=    -0.0000
       N       E                     dE             d eps       ncg     rms          rms(c)
DAV:   1    -0.117270333603E+04   -0.14255E-02   -0.56698E-01  1584   0.107E+00    0.182E-01
RMM:   2    -0.117270406828E+04   -0.73225E-03   -0.95977E-03  1584   0.135E-01    0.160E-01
RMM:   3    -0.117270402982E+04    0.38464E-04   -0.42367E-04  1228   0.274E-02
  19 F= -.11800625E+04 E0= -.11800625E+04  d E =-.257377E-02  mag=    -0.0000
       N       E                     dE             d eps       ncg     rms          rms(c)
DAV:   1    -0.117270089940E+04    0.31689E-02   -0.27065E+00  1584   0.234E+00    0.406E-01
RMM:   2    -0.117270417963E+04   -0.32802E-02   -0.43858E-02  1584   0.286E-01    0.362E-01
RMM:   3    -0.117270392603E+04    0.25360E-03   -0.22834E-03  1620   0.598E-02    0.313E-01
RMM:   4    -0.117270460629E+04   -0.68026E-03   -0.53379E-03  1588   0.788E-02    0.831E-02
RMM:   5    -0.117270440991E+04    0.19638E-03   -0.10595E-04  1086   0.145E-02    0.614E-02
RMM:   6    -0.117270434454E+04    0.65376E-04   -0.31387E-04  1186   0.173E-02
  20 F= -.11800640E+04 E0= -.11800640E+04  d E =-.409997E-02  mag=     0.0000
       N       E                     dE             d eps       ncg     rms          rms(c)
DAV:   1    -0.117270735701E+04   -0.29471E-02   -0.33629E-01  1692   0.897E-01    0.161E-01
RMM:   2    -0.117270799283E+04   -0.63582E-03   -0.86330E-03  1588   0.133E-01    0.139E-01
RMM:   3    -0.117270785720E+04    0.13563E-03   -0.38900E-04  1204   0.259E-02    0.118E-01
RMM:   4    -0.117270771938E+04    0.13782E-03   -0.70929E-04  1494   0.294E-02    0.664E-02
RMM:   5    -0.117270770827E+04    0.11116E-04   -0.10837E-04  1036   0.138E-02
  21 F= -.11800673E+04 E0= -.11800673E+04  d E =-.324839E-02  mag=    -0.0000
       N       E                     dE             d eps       ncg     rms          rms(c)
DAV:   1    -0.117270772786E+04   -0.84826E-05   -0.15154E-04  1512   0.193E-02    0.212E-02
RMM:   2    -0.117270772037E+04    0.74944E-05   -0.11605E-05   949   0.567E-03
  22 F= -.11800673E+04 E0= -.11800673E+04  d E =-.325830E-02  mag=     0.0000
       N       E                     dE             d eps       ncg     rms          rms(c)
DAV:   1    -0.117270888103E+04   -0.11532E-02   -0.17223E-01  1584   0.606E-01    0.105E-01
RMM:   2    -0.117270913608E+04   -0.25505E-03   -0.33161E-03  1586   0.856E-02    0.899E-02
RMM:   3    -0.117270909519E+04    0.40883E-04   -0.14975E-04  1086   0.175E-02
  23 F= -.11800688E+04 E0= -.11800688E+04  d E =-.154313E-02  mag=     0.0000
       N       E                     dE             d eps       ncg     rms          rms(c)
DAV:   1    -0.117270903956E+04    0.96522E-04   -0.53802E-02  1728   0.337E-01    0.808E-02
RMM:   2    -0.117270908713E+04   -0.47575E-04   -0.81861E-04  1400   0.408E-02
  24 F= -.11800689E+04 E0= -.11800689E+04  d E =-.163353E-02  mag=     0.0000
       N       E                     dE             d eps       ncg     rms          rms(c)
DAV:   1    -0.117271004995E+04   -0.10104E-02   -0.19914E-01  1584   0.642E-01    0.134E-01
RMM:   2    -0.117271028407E+04   -0.23412E-03   -0.35973E-03  1584   0.827E-02    0.119E-01
RMM:   3    -0.117271023599E+04    0.48075E-04   -0.18291E-04  1104   0.185E-02
  25 F= -.11800702E+04 E0= -.11800702E+04  d E =-.128338E-02  mag=    -0.0000
       N       E                     dE             d eps       ncg     rms          rms(c)
DAV:   1    -0.117270948081E+04    0.80326E-03   -0.70565E-01  1584   0.121E+00    0.190E-01
RMM:   2    -0.117271036645E+04   -0.88564E-03   -0.11538E-02  1584   0.147E-01    0.167E-01
RMM:   3    -0.117271031430E+04    0.52153E-04   -0.62299E-04  1286   0.321E-02
  26 F= -.11800706E+04 E0= -.11800706E+04  d E =-.162577E-02  mag=     0.0000
       N       E                     dE             d eps       ncg     rms          rms(c)
DAV:   1    -0.117271087899E+04   -0.51254E-03   -0.57810E-02  1584   0.341E-01    0.794E-02
RMM:   2    -0.117271091492E+04   -0.35926E-04   -0.10434E-03  1384   0.410E-02    0.687E-02
RMM:   3    -0.117271091405E+04    0.87408E-06   -0.69443E-05  1034   0.115E-02
  27 F= -.11800711E+04 E0= -.11800711E+04  d E =-.593036E-03  mag=    -0.0000
       N       E                     dE             d eps       ncg     rms          rms(c)
DAV:   1    -0.117271149058E+04   -0.57566E-03   -0.54677E-01  1584   0.104E+00    0.165E-01
RMM:   2    -0.117271220619E+04   -0.71561E-03   -0.95359E-03  1584   0.128E-01    0.143E-01
RMM:   3    -0.117271213884E+04    0.67345E-04   -0.42107E-04  1206   0.269E-02
  28 F= -.11800724E+04 E0= -.11800724E+04  d E =-.180260E-02  mag=     0.0000
       N       E                     dE             d eps       ncg     rms          rms(c)
DAV:   1    -0.117271303965E+04   -0.83346E-03   -0.16604E-02  1656   0.206E-01    0.447E-02
RMM:   2    -0.117271304670E+04   -0.70544E-05   -0.58937E-04  1526   0.387E-02
  29 F= -.11800732E+04 E0= -.11800732E+04  d E =-.834107E-03  mag=     0.0000
       N       E                     dE             d eps       ncg     rms          rms(c)
DAV:   1    -0.117271376942E+04   -0.72977E-03   -0.69566E-02  1728   0.413E-01    0.955E-02
RMM:   2    -0.117271384368E+04   -0.74262E-04   -0.15436E-03  1586   0.598E-02    0.832E-02
RMM:   3    -0.117271378103E+04    0.62651E-04   -0.10637E-04  1040   0.144E-02
  30 F= -.11800738E+04 E0= -.11800738E+04  d E =-.141904E-02  mag=     0.0000
       N       E                     dE             d eps       ncg     rms          rms(c)
DAV:   1    -0.117271413869E+04   -0.29501E-03   -0.13449E-02  1728   0.181E-01    0.501E-02
RMM:   2    -0.117271414486E+04   -0.61663E-05   -0.27710E-04  1148   0.256E-02
  31 F= -.11800741E+04 E0= -.11800741E+04  d E =-.359494E-03  mag=    -0.0000
       N       E                     dE             d eps       ncg     rms          rms(c)
DAV:   1    -0.117271438689E+04   -0.24820E-03   -0.33620E-02  1728   0.286E-01    0.762E-02
RMM:   2    -0.117271441799E+04   -0.31098E-04   -0.72102E-04  1476   0.404E-02
  32 F= -.11800744E+04 E0= -.11800744E+04  d E =-.626843E-03  mag=     0.0000
