       N       E                     dE             d eps       ncg     rms          rms(c)
DAV:   1     0.486263516506E+04    0.48626E+04   -0.17130E+05  1872   0.904E+02
DAV:   2    -0.510881485014E+02   -0.49137E+04   -0.44720E+04  2556   0.211E+02
DAV:   3    -0.118007704190E+04   -0.11290E+04   -0.11237E+04  2088   0.111E+02
DAV:   4    -0.123500872241E+04   -0.54932E+02   -0.54633E+02  2160   0.354E+01
DAV:   5    -0.123699293849E+04   -0.19842E+01   -0.19744E+01  2196   0.569E+00    0.643E+01
RMM:   6    -0.122172736342E+04    0.15266E+02   -0.84283E+00  1845   0.369E+00    0.529E+01
RMM:   7    -0.118699312215E+04    0.34734E+02   -0.10729E+02  1898   0.124E+01    0.346E+01
RMM:   8    -0.117893813519E+04    0.80550E+01   -0.60897E+00  1979   0.726E+00    0.278E+01
RMM:   9    -0.117442499419E+04    0.45131E+01   -0.62206E+00  1805   0.285E+00    0.226E+01
RMM:  10    -0.117175405028E+04    0.26709E+01   -0.19838E+01  1900   0.604E+00    0.131E+01
RMM:  11    -0.117209244680E+04   -0.33840E+00   -0.36799E+00  1778   0.420E+00    0.882E+00
RMM:  12    -0.117079671498E+04    0.12957E+01   -0.17766E+00  2008   0.223E+00    0.546E+00
RMM:  13    -0.117061907207E+04    0.17764E+00   -0.10108E+00  1757   0.112E+00    0.479E+00
RMM:  14    -0.117061457406E+04    0.44980E-02   -0.10864E-01  1861   0.104E+00    0.393E+00
RMM:  15    -0.117039825847E+04    0.21632E+00   -0.83451E-01  1786   0.991E-01    0.196E+00
RMM:  16    -0.117039429244E+04    0.39660E-02   -0.92675E-02  1820   0.924E-01    0.155E+00
RMM:  17    -0.117043735417E+04   -0.43062E-01   -0.33431E-02  1912   0.241E-01    0.110E+00
RMM:  18    -0.117045006415E+04   -0.12710E-01   -0.40362E-02  1729   0.304E-01    0.103E+00
RMM:  19    -0.117044246610E+04    0.75980E-02   -0.85566E-03  1731   0.201E-01    0.893E-01
RMM:  20    -0.117044073971E+04    0.17264E-02   -0.41683E-03  1684   0.896E-02    0.770E-01
RMM:  21    -0.117044501983E+04   -0.42801E-02   -0.49282E-03  1693   0.994E-02    0.396E-01
RMM:  22    -0.117044386046E+04    0.11594E-02   -0.35354E-03  1686   0.994E-02    0.238E-01
RMM:  23    -0.117044379533E+04    0.65125E-04   -0.79349E-04  1405   0.628E-02
   1 F= -.11775380E+04 E0= -.11775380E+04  d E =-.117754E+04  mag=     1.0168
       N       E                     dE             d eps       ncg     rms          rms(c)
DAV:   1    -0.117044288978E+04    0.97068E-03   -0.29367E-01  1800   0.905E-01    0.205E-01
RMM:   2    -0.117044378504E+04   -0.89526E-03   -0.11608E-02  1896   0.159E-01    0.192E-01
RMM:   3    -0.117044363558E+04    0.14946E-03   -0.10949E-03  1545   0.105E-01    0.186E-01
RMM:   4    -0.117044351152E+04    0.12406E-03   -0.21395E-04  1131   0.353E-02    0.171E-01
RMM:   5    -0.117044324939E+04    0.26214E-03   -0.59968E-04  1461   0.405E-02    0.117E-01
RMM:   6    -0.117044322452E+04    0.24869E-04   -0.59407E-04  1518   0.636E-02
   2 F= -.11775375E+04 E0= -.11775375E+04  d E =0.420639E-03  mag=     0.9992
       N       E                     dE             d eps       ncg     rms          rms(c)
DAV:   1    -0.117044459962E+04   -0.13502E-02   -0.10509E-01  1764   0.534E-01    0.874E-02
RMM:   2    -0.117044477107E+04   -0.17145E-03   -0.29619E-03  1733   0.897E-02    0.823E-02
RMM:   3    -0.117044470271E+04    0.68362E-04   -0.35072E-04  1272   0.777E-02
   3 F= -.11775389E+04 E0= -.11775389E+04  d E =-.968763E-03  mag=     0.9998
