       N       E                     dE             d eps       ncg     rms          rms(c)
DAV:   1     0.491868101480E+04    0.49187E+04   -0.17102E+05  1836   0.911E+02
DAV:   2    -0.557053438452E+02   -0.49744E+04   -0.45341E+04  2520   0.208E+02
DAV:   3    -0.119326160933E+04   -0.11376E+04   -0.11318E+04  2160   0.110E+02
DAV:   4    -0.123785467799E+04   -0.44593E+02   -0.44390E+02  2016   0.286E+01
DAV:   5    -0.123899827803E+04   -0.11436E+01   -0.11418E+01  2340   0.423E+00    0.660E+01
RMM:   6    -0.122278280771E+04    0.16215E+02   -0.25380E+01  1584   0.515E+00    0.540E+01
RMM:   7    -0.120855339762E+04    0.14229E+02   -0.73599E+00  1584   0.307E+00    0.421E+01
RMM:   8    -0.118447590381E+04    0.24077E+02   -0.25955E+01  1584   0.585E+00    0.283E+01
RMM:   9    -0.117185690502E+04    0.12619E+02   -0.22192E+01  1584   0.538E+00    0.194E+01
RMM:  10    -0.117205654957E+04   -0.19964E+00   -0.20316E+01  1584   0.511E+00    0.858E+00
RMM:  11    -0.117175702604E+04    0.29952E+00   -0.72248E-01  1626   0.112E+00    0.591E+00
RMM:  12    -0.117143274230E+04    0.32428E+00   -0.21253E+00  1584   0.153E+00    0.344E+00
RMM:  13    -0.117110879335E+04    0.32395E+00   -0.51212E-01  1589   0.684E-01    0.901E-01
RMM:  14    -0.117110246492E+04    0.63284E-02   -0.20126E-02  1610   0.149E-01    0.577E-01
RMM:  15    -0.117110006947E+04    0.23955E-02   -0.92216E-03  1594   0.106E-01    0.327E-01
RMM:  16    -0.117109989267E+04    0.17680E-03   -0.43966E-03  1590   0.721E-02    0.222E-01
RMM:  17    -0.117109987390E+04    0.18764E-04   -0.15879E-03  1398   0.419E-02    0.117E-01
RMM:  18    -0.117109989883E+04   -0.24926E-04   -0.60527E-04  1294   0.270E-02
   1 F= -.11782884E+04 E0= -.11782884E+04  d E =-.117829E+04  mag=     0.0026
       N       E                     dE             d eps       ncg     rms          rms(c)
DAV:   1    -0.117109996098E+04   -0.87081E-04   -0.95936E-01  1728   0.132E+00    0.323E-01
RMM:   2    -0.117110124749E+04   -0.12865E-02   -0.18693E-02  1584   0.177E-01    0.303E-01
RMM:   3    -0.117110107862E+04    0.16886E-03   -0.10895E-03  1414   0.374E-02    0.281E-01
RMM:   4    -0.117110064471E+04    0.43391E-03   -0.17110E-03  1577   0.467E-02    0.115E-01
RMM:   5    -0.117110073603E+04   -0.91321E-04   -0.47891E-04  1352   0.254E-02
   2 F= -.11782897E+04 E0= -.11782897E+04  d E =-.131142E-02  mag=     0.0007
       N       E                     dE             d eps       ncg     rms          rms(c)
DAV:   1    -0.117110159533E+04   -0.95062E-03   -0.15059E-01  1656   0.520E-01    0.124E-01
RMM:   2    -0.117110174471E+04   -0.14937E-03   -0.24457E-03  1548   0.654E-02    0.117E-01
RMM:   3    -0.117110170470E+04    0.40001E-04   -0.10909E-04  1055   0.133E-02
   3 F= -.11782905E+04 E0= -.11782905E+04  d E =-.208845E-02  mag=    -0.0003
       N       E                     dE             d eps       ncg     rms          rms(c)
DAV:   1    -0.117110266542E+04   -0.92072E-03   -0.55476E-01  1728   0.977E-01    0.196E-01
RMM:   2    -0.117110338815E+04   -0.72273E-03   -0.93326E-03  1584   0.121E-01    0.164E-01
RMM:   3    -0.117110324758E+04    0.14057E-03   -0.34019E-04  1155   0.238E-02    0.138E-01
RMM:   4    -0.117110319738E+04    0.50203E-04   -0.11974E-03  1536   0.377E-02    0.471E-02
RMM:   5    -0.117110317025E+04    0.27129E-04   -0.32080E-05  1010   0.854E-03
   4 F= -.11782922E+04 E0= -.11782922E+04  d E =-.173686E-02  mag=    -0.0000
       N       E                     dE             d eps       ncg     rms          rms(c)
DAV:   1    -0.117110315627E+04    0.41105E-04   -0.54436E-03  1800   0.985E-02    0.327E-02
RMM:   2    -0.117110316202E+04   -0.57413E-05   -0.12409E-04  1005   0.160E-02
   5 F= -.11782923E+04 E0= -.11782923E+04  d E =-.175527E-02  mag=    -0.0000
       N       E                     dE             d eps       ncg     rms          rms(c)
DAV:   1    -0.117110423726E+04   -0.10810E-02   -0.25333E-01  1728   0.658E-01    0.134E-01
RMM:   2    -0.117110451586E+04   -0.27860E-03   -0.42725E-03  1584   0.811E-02    0.114E-01
RMM:   3    -0.117110444082E+04    0.75045E-04   -0.14170E-04  1059   0.160E-02
   6 F= -.11782939E+04 E0= -.11782939E+04  d E =-.165782E-02  mag=     0.0000
       N       E                     dE             d eps       ncg     rms          rms(c)
DAV:   1    -0.117110291731E+04    0.15986E-02   -0.11085E+00  1728   0.138E+00    0.265E-01
RMM:   2    -0.117110415777E+04   -0.12405E-02   -0.17654E-02  1584   0.164E-01    0.225E-01
RMM:   3    -0.117110391186E+04    0.24591E-03   -0.65212E-04  1284   0.322E-02    0.192E-01
RMM:   4    -0.117110386853E+04    0.43328E-04   -0.24799E-03  1584   0.563E-02    0.463E-02
RMM:   5    -0.117110383043E+04    0.38099E-04   -0.48812E-05  1032   0.104E-02
   7 F= -.11782941E+04 E0= -.11782941E+04  d E =-.186737E-02  mag=    -0.0000
       N       E                     dE             d eps       ncg     rms          rms(c)
DAV:   1    -0.117110465552E+04   -0.78699E-03   -0.22910E-01  1728   0.628E-01    0.115E-01
RMM:   2    -0.117110488265E+04   -0.22713E-03   -0.36388E-03  1584   0.745E-02    0.965E-02
RMM:   3    -0.117110476374E+04    0.11890E-03   -0.13440E-04  1030   0.156E-02    0.796E-02
RMM:   4    -0.117110466447E+04    0.99272E-04   -0.76550E-04  1532   0.304E-02
   8 F= -.11782946E+04 E0= -.11782946E+04  d E =-.232823E-02  mag=     0.0000
       N       E                     dE             d eps       ncg     rms          rms(c)
DAV:   1    -0.117110553140E+04   -0.76766E-03   -0.14926E-01  1728   0.507E-01    0.750E-02
RMM:   2    -0.117110571024E+04   -0.17883E-03   -0.23605E-03  1580   0.623E-02    0.616E-02
RMM:   3    -0.117110567026E+04    0.39973E-04   -0.81011E-05  1004   0.125E-02
   9 F= -.11782959E+04 E0= -.11782959E+04  d E =-.128300E-02  mag=    -0.0000
       N       E                     dE             d eps       ncg     rms          rms(c)
DAV:   1    -0.117110474122E+04    0.96902E-03   -0.13246E+00  1584   0.151E+00    0.251E-01
RMM:   2    -0.117110627383E+04   -0.15326E-02   -0.20706E-02  1584   0.183E-01    0.212E-01
RMM:   3    -0.117110607426E+04    0.19957E-03   -0.81317E-04  1352   0.361E-02    0.184E-01
RMM:   4    -0.117110614501E+04   -0.70754E-04   -0.29609E-03  1584   0.606E-02    0.463E-02
RMM:   5    -0.117110607560E+04    0.69417E-04   -0.45053E-05  1038   0.107E-02
  10 F= -.11782971E+04 E0= -.11782971E+04  d E =-.253993E-02  mag=    -0.0000
       N       E                     dE             d eps       ncg     rms          rms(c)
DAV:   1    -0.117110846020E+04   -0.23152E-02   -0.16928E-01  1728   0.652E-01    0.115E-01
RMM:   2    -0.117110867889E+04   -0.21869E-03   -0.38039E-03  1584   0.933E-02    0.108E-01
RMM:   3    -0.117110856914E+04    0.10975E-03   -0.14505E-04  1062   0.179E-02    0.960E-02
RMM:   4    -0.117110835096E+04    0.21818E-03   -0.11109E-03  1570   0.366E-02    0.356E-02
RMM:   5    -0.117110833752E+04    0.13439E-04   -0.33125E-05   996   0.879E-03
  11 F= -.11782991E+04 E0= -.11782991E+04  d E =-.200757E-02  mag=    -0.0000
       N       E                     dE             d eps       ncg     rms          rms(c)
DAV:   1    -0.117110834021E+04    0.10756E-04   -0.14056E-04  1440   0.204E-02    0.143E-02
RMM:   2    -0.117110834135E+04   -0.11409E-05   -0.18369E-05   960   0.711E-03
  12 F= -.11782991E+04 E0= -.11782991E+04  d E =-.200479E-02  mag=    -0.0000
       N       E                     dE             d eps       ncg     rms          rms(c)
DAV:   1    -0.117110970153E+04   -0.13613E-02   -0.83095E-02  1728   0.427E-01    0.916E-02
RMM:   2    -0.117110977631E+04   -0.74778E-04   -0.16059E-03  1578   0.572E-02    0.829E-02
RMM:   3    -0.117110971142E+04    0.64890E-04   -0.57377E-05  1008   0.115E-02
  13 F= -.11783004E+04 E0= -.11783004E+04  d E =-.127722E-02  mag=     0.0000
       N       E                     dE             d eps       ncg     rms          rms(c)
DAV:   1    -0.117110986269E+04   -0.86385E-04   -0.25365E-01  1584   0.747E-01    0.166E-01
RMM:   2    -0.117111005618E+04   -0.19349E-03   -0.43906E-03  1584   0.934E-02    0.150E-01
RMM:   3    -0.117110986494E+04    0.19124E-03   -0.18496E-04  1090   0.196E-02    0.127E-01
RMM:   4    -0.117110966115E+04    0.20380E-03   -0.14366E-03  1584   0.430E-02    0.322E-02
RMM:   5    -0.117110964524E+04    0.15904E-04   -0.30050E-05  1010   0.832E-03
  14 F= -.11783002E+04 E0= -.11783002E+04  d E =-.105406E-02  mag=     0.0000
       N       E                     dE             d eps       ncg     rms          rms(c)
DAV:   1    -0.117111084049E+04   -0.11793E-02   -0.12059E-01  1728   0.558E-01    0.104E-01
RMM:   2    -0.117111104919E+04   -0.20870E-03   -0.30355E-03  1590   0.833E-02    0.101E-01
RMM:   3    -0.117111099321E+04    0.55987E-04   -0.10426E-04  1030   0.156E-02
  15 F= -.11783017E+04 E0= -.11783017E+04  d E =-.150479E-02  mag=     0.0000
       N       E                     dE             d eps       ncg     rms          rms(c)
DAV:   1    -0.117111080193E+04    0.24727E-03   -0.94199E-04  1656   0.519E-02    0.281E-02
RMM:   2    -0.117111079621E+04    0.57211E-05   -0.12957E-04   996   0.181E-02
  16 F= -.11783015E+04 E0= -.11783015E+04  d E =-.130836E-02  mag=     0.0000
       N       E                     dE             d eps       ncg     rms          rms(c)
DAV:   1    -0.117111118021E+04   -0.37829E-03   -0.40741E-02  1728   0.326E-01    0.564E-02
RMM:   2    -0.117111125801E+04   -0.77798E-04   -0.10844E-03  1566   0.489E-02    0.540E-02
RMM:   3    -0.117111124441E+04    0.13602E-04   -0.40650E-05   960   0.987E-03
  17 F= -.11783020E+04 E0= -.11783020E+04  d E =-.481506E-03  mag=    -0.0000
       N       E                     dE             d eps       ncg     rms          rms(c)
DAV:   1    -0.117111120608E+04    0.51927E-04   -0.42415E-04  1620   0.348E-02    0.138E-02
RMM:   2    -0.117111120778E+04   -0.16975E-05   -0.39370E-05   960   0.981E-03
  18 F= -.11783019E+04 E0= -.11783019E+04  d E =-.443387E-03  mag=    -0.0000
