       N       E                     dE             d eps       ncg     rms          rms(c)
DAV:   1     0.452767545432E+04    0.45277E+04   -0.17524E+05  1944   0.905E+02
DAV:   2    -0.125314459649E+03   -0.46530E+04   -0.42217E+04  2520   0.201E+02
DAV:   3    -0.119494964738E+04   -0.10696E+04   -0.10655E+04  2124   0.105E+02
DAV:   4    -0.123715442151E+04   -0.42205E+02   -0.41965E+02  2052   0.274E+01
DAV:   5    -0.123822109808E+04   -0.10667E+01   -0.10641E+01  2304   0.403E+00    0.631E+01
RMM:   6    -0.122419168373E+04    0.14029E+02   -0.80523E+00  1588   0.315E+00    0.517E+01
RMM:   7    -0.118398499232E+04    0.40207E+02   -0.87070E+01  1594   0.997E+00    0.291E+01
RMM:   8    -0.117684589488E+04    0.71391E+01   -0.10286E+01  1601   0.359E+00    0.229E+01
RMM:   9    -0.117409549902E+04    0.27504E+01   -0.27538E+01  1584   0.588E+00    0.116E+01
RMM:  10    -0.117370087917E+04    0.39462E+00   -0.37080E+00  1595   0.217E+00    0.802E+00
RMM:  11    -0.117288410025E+04    0.81678E+00   -0.11543E+00  1594   0.991E-01    0.577E+00
RMM:  12    -0.117241491507E+04    0.46919E+00   -0.11997E+00  1584   0.120E+00    0.230E+00
RMM:  13    -0.117233480790E+04    0.80107E-01   -0.33998E-01  1584   0.657E-01    0.886E-01
RMM:  14    -0.117232214298E+04    0.12665E-01   -0.54208E-02  1594   0.253E-01    0.474E-01
RMM:  15    -0.117232516397E+04   -0.30210E-02   -0.18030E-02  1595   0.149E-01    0.260E-01
RMM:  16    -0.117232500440E+04    0.15957E-03   -0.37963E-03  1606   0.687E-02    0.142E-01
RMM:  17    -0.117232507675E+04   -0.72352E-04   -0.44689E-04  1258   0.245E-02
   1 F= -.11795943E+04 E0= -.11795943E+04  d E =-.117959E+04  mag=    -1.0069
       N       E                     dE             d eps       ncg     rms          rms(c)
DAV:   1    -0.117232326823E+04    0.17362E-02   -0.33843E-01  1692   0.950E-01    0.210E-01
RMM:   2    -0.117232456078E+04   -0.12926E-02   -0.14351E-02  1646   0.162E-01    0.196E-01
RMM:   3    -0.117232437075E+04    0.19004E-03   -0.79855E-04  1420   0.350E-02    0.172E-01
RMM:   4    -0.117232412660E+04    0.24415E-03   -0.18381E-03  1578   0.466E-02    0.747E-02
RMM:   5    -0.117232409188E+04    0.34714E-04   -0.95155E-05  1060   0.138E-02
   2 F= -.11795941E+04 E0= -.11795941E+04  d E =0.257248E-03  mag=    -1.0005
       N       E                     dE             d eps       ncg     rms          rms(c)
DAV:   1    -0.117232546661E+04   -0.13400E-02   -0.11687E-01  1656   0.554E-01    0.114E-01
RMM:   2    -0.117232573894E+04   -0.27233E-03   -0.37003E-03  1643   0.848E-02    0.105E-01
RMM:   3    -0.117232565415E+04    0.84793E-04   -0.19383E-04  1094   0.185E-02
   3 F= -.11795952E+04 E0= -.11795952E+04  d E =-.876988E-03  mag=    -0.9998
