       N       E                     dE             d eps       ncg     rms          rms(c)
DAV:   1     0.489086476504E+04    0.48909E+04   -0.17340E+05  1872   0.913E+02
DAV:   2    -0.540601141345E+02   -0.49449E+04   -0.45173E+04  2520   0.206E+02
DAV:   3    -0.119952126121E+04   -0.11455E+04   -0.11409E+04  2124   0.109E+02
DAV:   4    -0.124556529469E+04   -0.46044E+02   -0.45820E+02  1980   0.289E+01
DAV:   5    -0.124674408329E+04   -0.11788E+01   -0.11760E+01  2268   0.435E+00    0.842E+01
RMM:   6    -0.123348546499E+04    0.13259E+02   -0.77140E+00  1584   0.315E+00    0.740E+01
RMM:   7    -0.118572441365E+04    0.47761E+02   -0.92303E+01  1584   0.107E+01    0.502E+01
RMM:   8    -0.118146004764E+04    0.42644E+01   -0.52180E+01  1584   0.815E+00    0.219E+01
RMM:   9    -0.118380987392E+04   -0.23498E+01   -0.80265E+00  1591   0.331E+00    0.116E+01
RMM:  10    -0.118091510387E+04    0.28948E+01   -0.53716E+00  1584   0.251E+00    0.439E+00
RMM:  11    -0.118065681932E+04    0.25828E+00   -0.80670E-01  1584   0.101E+00    0.226E+00
RMM:  12    -0.118057945157E+04    0.77368E-01   -0.24806E-01  1584   0.545E-01    0.751E-01
RMM:  13    -0.118058062658E+04   -0.11750E-02   -0.32396E-02  1591   0.216E-01    0.509E-01
RMM:  14    -0.118058315514E+04   -0.25286E-02   -0.17786E-02  1584   0.142E-01    0.447E-01
RMM:  15    -0.118058001062E+04    0.31445E-02   -0.17215E-02  1584   0.144E-01    0.429E-01
RMM:  16    -0.118057969803E+04    0.31258E-03   -0.11540E-03  1537   0.402E-02    0.196E-01
RMM:  17    -0.118057977566E+04   -0.77630E-04   -0.58397E-04  1373   0.264E-02
   1 F= -.11879689E+04 E0= -.11879619E+04  d E =-.118797E+04  mag=    -0.7569
       N       E                     dE             d eps       ncg     rms          rms(c)
DAV:   1    -0.118057545626E+04    0.42418E-02   -0.82068E-01  1584   0.113E+00    0.129E+00
RMM:   2    -0.118057721959E+04   -0.17633E-02   -0.25539E-02  1584   0.175E-01    0.117E+00
RMM:   3    -0.118057657037E+04    0.64922E-03   -0.14362E-03  1413   0.408E-02    0.918E-01
RMM:   4    -0.118057671807E+04   -0.14770E-03   -0.49006E-03  1579   0.630E-02    0.248E-01
RMM:   5    -0.118057641945E+04    0.29861E-03   -0.24531E-04  1084   0.159E-02    0.139E-01
RMM:   6    -0.118057628749E+04    0.13197E-03   -0.53600E-04  1146   0.189E-02    0.434E-02
RMM:   7    -0.118057629499E+04   -0.75066E-05   -0.35178E-05  1014   0.740E-03
   2 F= -.11879662E+04 E0= -.11879592E+04  d E =0.272617E-02  mag=    -0.7655
       N       E                     dE             d eps       ncg     rms          rms(c)
DAV:   1    -0.118057997315E+04   -0.36857E-02   -0.39035E-01  1620   0.784E-01    0.875E-01
RMM:   2    -0.118058061076E+04   -0.63760E-03   -0.10476E-02  1584   0.114E-01    0.789E-01
RMM:   3    -0.118058025005E+04    0.36071E-03   -0.61978E-04  1170   0.265E-02    0.603E-01
RMM:   4    -0.118058031602E+04   -0.65969E-04   -0.22991E-03  1558   0.440E-02    0.165E-01
RMM:   5    -0.118058016512E+04    0.15090E-03   -0.14860E-04  1057   0.122E-02    0.868E-02
RMM:   6    -0.118058011891E+04    0.46204E-04   -0.21497E-04  1071   0.122E-02
   3 F= -.11879695E+04 E0= -.11879625E+04  d E =-.573314E-03  mag=    -0.7662
