       N       E                     dE             d eps       ncg     rms          rms(c)
DAV:   1     0.496740878674E+04    0.49674E+04   -0.17374E+05  1872   0.915E+02
DAV:   2    -0.317038395058E+02   -0.49991E+04   -0.45672E+04  2520   0.209E+02
DAV:   3    -0.119230774264E+04   -0.11606E+04   -0.11556E+04  2088   0.111E+02
DAV:   4    -0.124053631232E+04   -0.48229E+02   -0.47961E+02  2052   0.308E+01
DAV:   5    -0.124189373675E+04   -0.13574E+01   -0.13538E+01  2304   0.485E+00    0.662E+01
RMM:   6    -0.122702009070E+04    0.14874E+02   -0.91485E+00  1612   0.342E+00    0.543E+01
RMM:   7    -0.118831771377E+04    0.38702E+02   -0.90221E+01  1628   0.108E+01    0.349E+01
RMM:   8    -0.118493531049E+04    0.33824E+01   -0.46638E+00  1711   0.273E+00    0.280E+01
RMM:   9    -0.117820778155E+04    0.67275E+01   -0.26371E+01  1601   0.562E+00    0.190E+01
RMM:  10    -0.117900335330E+04   -0.79557E+00   -0.13112E+01  1595   0.431E+00    0.140E+01
RMM:  11    -0.117660426080E+04    0.23991E+01   -0.27494E+00  1676   0.180E+00    0.721E+00
RMM:  12    -0.117577559191E+04    0.82867E+00   -0.10708E+00  1647   0.987E-01    0.406E+00
RMM:  13    -0.117546123813E+04    0.31435E+00   -0.10936E+00  1635   0.111E+00    0.233E+00
RMM:  14    -0.117540750563E+04    0.53733E-01   -0.28575E-01  1628   0.619E-01    0.287E+00
RMM:  15    -0.117541306763E+04   -0.55620E-02   -0.37297E-02  1822   0.200E-01    0.319E+00
RMM:  16    -0.117551101757E+04   -0.97950E-01   -0.15788E-01  1606   0.449E-01    0.385E+00
RMM:  17    -0.117539345879E+04    0.11756E+00   -0.11935E-01  1676   0.312E-01    0.930E-01
RMM:  18    -0.117539352658E+04   -0.67789E-04   -0.31203E-03  1534   0.893E-02    0.919E-01
RMM:  19    -0.117539522030E+04   -0.16937E-02   -0.40620E-03  1396   0.409E-02    0.922E-01
RMM:  20    -0.117539426105E+04    0.95925E-03   -0.59958E-04  1346   0.314E-02    0.720E-01
RMM:  21    -0.117539316579E+04    0.10953E-02   -0.59233E-04  1283   0.293E-02    0.563E-01
RMM:  22    -0.117539122103E+04    0.19448E-02   -0.15167E-03  1548   0.438E-02    0.290E-01
RMM:  23    -0.117539071791E+04    0.50312E-03   -0.59642E-04  1132   0.253E-02    0.173E-01
RMM:  24    -0.117539047633E+04    0.24158E-03   -0.23256E-04  1099   0.191E-02    0.111E-01
RMM:  25    -0.117539036745E+04    0.10888E-03   -0.16956E-04  1068   0.153E-02    0.501E-02
RMM:  26    -0.117539033869E+04    0.28766E-04   -0.10153E-04  1050   0.128E-02
   1 F= -.11824242E+04 E0= -.11824242E+04  d E =-.118242E+04  mag=     0.0000
       N       E                     dE             d eps       ncg     rms          rms(c)
DAV:   1    -0.117476733081E+04    0.62304E+00   -0.51745E+01  1872   0.755E+00    0.830E+00
RMM:   2    -0.117511433674E+04   -0.34701E+00   -0.40347E+00  1688   0.133E+00    0.786E+00
RMM:   3    -0.117505386882E+04    0.60468E-01   -0.27022E-01  1637   0.440E-01    0.641E+00
RMM:   4    -0.117509568035E+04   -0.41812E-01   -0.33967E-01  1610   0.509E-01    0.142E+00
RMM:   5    -0.117504989582E+04    0.45785E-01   -0.29367E-02  1643   0.167E-01    0.127E+00
RMM:   6    -0.117504883826E+04    0.10576E-02   -0.31759E-03  1297   0.488E-02    0.109E+00
RMM:   7    -0.117503913131E+04    0.97070E-02   -0.29634E-02  1587   0.133E-01    0.115E+00
RMM:   8    -0.117503654533E+04    0.25860E-02   -0.90223E-03  1561   0.103E-01    0.259E-01
RMM:   9    -0.117503616989E+04    0.37544E-03   -0.95556E-04  1150   0.265E-02    0.143E-01
RMM:  10    -0.117503610980E+04    0.60097E-04   -0.59626E-04  1171   0.218E-02
   2 F= -.11820770E+04 E0= -.11820770E+04  d E =0.347194E+00  mag=    -0.0000
       N       E                     dE             d eps       ncg     rms          rms(c)
DAV:   1    -0.117528478241E+04   -0.24861E+00   -0.29379E+01  1800   0.571E+00    0.649E+00
RMM:   2    -0.117548050155E+04   -0.19572E+00   -0.24436E+00  1646   0.969E-01    0.616E+00
RMM:   3    -0.117543378615E+04    0.46715E-01   -0.16187E-01  1688   0.320E-01    0.545E+00
RMM:   4    -0.117543078246E+04    0.30037E-02   -0.14778E-01  1618   0.316E-01    0.142E+00
RMM:   5    -0.117542885372E+04    0.19287E-02   -0.15277E-02  1583   0.106E-01    0.921E-01
RMM:   6    -0.117542697496E+04    0.18788E-02   -0.10689E-03  1297   0.313E-02    0.677E-01
RMM:   7    -0.117541983417E+04    0.71408E-02   -0.23487E-02  1638   0.127E-01    0.529E-01
RMM:   8    -0.117541955551E+04    0.27866E-03   -0.20650E-03  1291   0.533E-02    0.858E-02
RMM:   9    -0.117541950012E+04    0.55387E-04   -0.21802E-04  1102   0.159E-02
   3 F= -.11824551E+04 E0= -.11824551E+04  d E =-.309358E-01  mag=     0.0000
