       N       E                     dE             d eps       ncg     rms          rms(c)
DAV:   1     0.467089274468E+04    0.46709E+04   -0.17973E+05  1944   0.924E+02
DAV:   2    -0.955841711682E+02   -0.47665E+04   -0.43598E+04  2520   0.206E+02
DAV:   3    -0.120259148957E+04   -0.11070E+04   -0.11024E+04  2088   0.109E+02
DAV:   4    -0.124726379076E+04   -0.44672E+02   -0.44393E+02  2052   0.287E+01
DAV:   5    -0.124844184701E+04   -0.11781E+01   -0.11745E+01  2412   0.433E+00    0.725E+01
RMM:   6    -0.122853597424E+04    0.19906E+02   -0.30237E+01  1760   0.510E+00    0.591E+01
RMM:   7    -0.121070924464E+04    0.17827E+02   -0.12661E+01  1605   0.403E+00    0.455E+01
RMM:   8    -0.118248824227E+04    0.28221E+02   -0.49025E+01  1594   0.784E+00    0.273E+01
RMM:   9    -0.117681046175E+04    0.56778E+01   -0.18190E+01  1615   0.483E+00    0.196E+01
RMM:  10    -0.117753638985E+04   -0.72593E+00   -0.96463E+00  1633   0.350E+00    0.978E+00
RMM:  11    -0.117797039125E+04   -0.43400E+00   -0.10175E+00  1757   0.128E+00    0.746E+00
RMM:  12    -0.117731790654E+04    0.65248E+00   -0.15200E+00  1625   0.129E+00    0.289E+00
RMM:  13    -0.117712148747E+04    0.19642E+00   -0.49800E-01  1644   0.792E-01    0.183E+00
RMM:  14    -0.117709992377E+04    0.21564E-01   -0.18340E-01  1706   0.461E-01    0.558E-01
RMM:  15    -0.117709640996E+04    0.35138E-02   -0.14512E-02  1724   0.169E-01    0.445E-01
RMM:  16    -0.117709582137E+04    0.58858E-03   -0.36803E-03  1747   0.718E-02    0.309E-01
RMM:  17    -0.117709564388E+04    0.17749E-03   -0.39912E-03  1690   0.642E-02    0.178E-01
RMM:  18    -0.117709583586E+04   -0.19197E-03   -0.59517E-04  1195   0.293E-02    0.104E-01
RMM:  19    -0.117709587053E+04   -0.34670E-04   -0.19396E-04  1121   0.185E-02
   1 F= -.11844153E+04 E0= -.11844153E+04  d E =-.118442E+04  mag=    -1.0026
       N       E                     dE             d eps       ncg     rms          rms(c)
DAV:   1    -0.117709407703E+04    0.17588E-02   -0.35077E-01  1692   0.968E-01    0.153E-01
RMM:   2    -0.117709535250E+04   -0.12755E-02   -0.14462E-02  1824   0.172E-01    0.197E-01
RMM:   3    -0.117709534794E+04    0.45662E-05   -0.91799E-04  1490   0.470E-02
   2 F= -.11844151E+04 E0= -.11844151E+04  d E =0.161531E-03  mag=    -1.0010
       N       E                     dE             d eps       ncg     rms          rms(c)
DAV:   1    -0.117709583160E+04   -0.47910E-03   -0.10185E-01  1728   0.520E-01    0.241E-01
RMM:   2    -0.117709623658E+04   -0.40498E-03   -0.38763E-03  1796   0.896E-02    0.148E-01
RMM:   3    -0.117709623463E+04    0.19470E-05   -0.23717E-04  1119   0.251E-02
   3 F= -.11844158E+04 E0= -.11844158E+04  d E =-.530973E-03  mag=    -0.9998
