       N       E                     dE             d eps       ncg     rms          rms(c)
DAV:   1     0.481232683439E+04    0.48123E+04   -0.18091E+05  1908   0.929E+02
DAV:   2    -0.746780080600E+02   -0.48870E+04   -0.44777E+04  2520   0.213E+02
DAV:   3    -0.120309005958E+04   -0.11284E+04   -0.11215E+04  2088   0.111E+02
DAV:   4    -0.124983821505E+04   -0.46748E+02   -0.46466E+02  2016   0.294E+01
DAV:   5    -0.125105061029E+04   -0.12124E+01   -0.12089E+01  2412   0.449E+00    0.101E+02
RMM:   6    -0.125193752092E+04   -0.88691E+00   -0.20986E+02  1937   0.196E+01    0.100E+02
RMM:   7    -0.123022605157E+04    0.21711E+02   -0.10270E+01  1592   0.519E+00    0.735E+01
RMM:   8    -0.119545366204E+04    0.34772E+02   -0.35229E+01  1585   0.817E+00    0.358E+01
RMM:   9    -0.118380457314E+04    0.11649E+02   -0.13183E+01  1584   0.487E+00    0.288E+01
RMM:  10    -0.117097104849E+04    0.12834E+02   -0.25450E+01  1586   0.607E+00    0.197E+01
RMM:  11    -0.117049013478E+04    0.48091E+00   -0.15578E+01  1589   0.502E+00    0.130E+01
RMM:  12    -0.117011690302E+04    0.37323E+00   -0.20064E+00  1669   0.204E+00    0.924E+00
RMM:  13    -0.117012567722E+04   -0.87742E-02   -0.26027E-01  1735   0.810E-01    0.581E+00
RMM:  14    -0.116991842541E+04    0.20725E+00   -0.10443E-01  1623   0.378E-01    0.437E+00
RMM:  15    -0.116968693848E+04    0.23149E+00   -0.76963E-01  1589   0.988E-01    0.236E+00
RMM:  16    -0.116967374952E+04    0.13189E-01   -0.27466E-01  1602   0.675E-01    0.127E+00
RMM:  17    -0.116966117210E+04    0.12577E-01   -0.11757E-02  1741   0.171E-01    0.618E-01
RMM:  18    -0.116965929911E+04    0.18730E-02   -0.97943E-03  1586   0.121E-01    0.322E-01
RMM:  19    -0.116965962614E+04   -0.32702E-03   -0.18964E-03  1600   0.536E-02    0.217E-01
RMM:  20    -0.116965976486E+04   -0.13872E-03   -0.68161E-04  1205   0.359E-02    0.128E-01
RMM:  21    -0.116965981494E+04   -0.50085E-04   -0.23929E-04  1053   0.215E-02
   1 F= -.11767489E+04 E0= -.11767486E+04  d E =-.117675E+04  mag=     0.9970
       N       E                     dE             d eps       ncg     rms          rms(c)
DAV:   1    -0.116965544792E+04    0.43169E-02   -0.54808E-01  1728   0.181E+00    0.352E-01
RMM:   2    -0.116965933965E+04   -0.38917E-02   -0.44656E-02  1835   0.327E-01    0.191E-01
RMM:   3    -0.116965916637E+04    0.17328E-03   -0.21390E-03  1612   0.827E-02    0.184E-01
RMM:   4    -0.116965895410E+04    0.21227E-03   -0.44289E-04  1200   0.254E-02    0.159E-01
RMM:   5    -0.116965864300E+04    0.31111E-03   -0.89777E-04  1545   0.365E-02    0.995E-02
RMM:   6    -0.116965862954E+04    0.13455E-04   -0.38818E-04  1276   0.287E-02
   2 F= -.11767481E+04 E0= -.11767478E+04  d E =0.778755E-03  mag=     0.9945
       N       E                     dE             d eps       ncg     rms          rms(c)
DAV:   1    -0.116965963397E+04   -0.99098E-03   -0.19119E-01  1728   0.106E+00    0.207E-01
RMM:   2    -0.116966087445E+04   -0.12405E-02   -0.14932E-02  1796   0.186E-01    0.114E-01
RMM:   3    -0.116966072901E+04    0.14544E-03   -0.57952E-04  1220   0.426E-02    0.105E-01
RMM:   4    -0.116966066044E+04    0.68572E-04   -0.11799E-04  1019   0.169E-02
   3 F= -.11767499E+04 E0= -.11767496E+04  d E =-.101361E-02  mag=     0.9943
       N       E                     dE             d eps       ncg     rms          rms(c)
DAV:   1    -0.116965158322E+04    0.91458E-02   -0.38349E-01  1836   0.242E+00    0.307E-01
RMM:   2    -0.116966092853E+04   -0.93453E-02   -0.98771E-02  1795   0.353E-01    0.182E-01
RMM:   3    -0.116965886450E+04    0.20640E-02   -0.29632E-03  1405   0.694E-02    0.161E-01
RMM:   4    -0.116965844555E+04    0.41895E-03   -0.10863E-03  1566   0.381E-02    0.103E-01
RMM:   5    -0.116965831447E+04    0.13108E-03   -0.70313E-04  1555   0.329E-02    0.576E-02
RMM:   6    -0.116965831977E+04   -0.52993E-05   -0.42982E-05  1001   0.130E-02
   4 F= -.11767477E+04 E0= -.11767473E+04  d E =0.221575E-02  mag=     0.9942
       N       E                     dE             d eps       ncg     rms          rms(c)
DAV:   1    -0.116965660206E+04    0.17124E-02   -0.22450E-01  1872   0.184E+00    0.230E-01
RMM:   2    -0.116966206561E+04   -0.54635E-02   -0.57476E-02  1791   0.270E-01    0.121E-01
RMM:   3    -0.116966089965E+04    0.11660E-02   -0.17232E-03  1264   0.529E-02    0.106E-01
RMM:   4    -0.116966073057E+04    0.16908E-03   -0.49721E-04  1161   0.265E-02    0.689E-02
RMM:   5    -0.116966068083E+04    0.49745E-04   -0.38945E-04  1387   0.251E-02
   5 F= -.11767499E+04 E0= -.11767496E+04  d E =-.499972E-04  mag=     0.9944
