       N       E                     dE             d eps       ncg     rms          rms(c)
DAV:   1     0.496600969546E+04    0.49660E+04   -0.18186E+05  1856   0.967E+02
DAV:   2    -0.129846156902E+02   -0.49790E+04   -0.45766E+04  2464   0.219E+02
DAV:   3    -0.120115964113E+04   -0.11882E+04   -0.11822E+04  2016   0.116E+02
DAV:   4    -0.125145443301E+04   -0.50295E+02   -0.49974E+02  1952   0.321E+01
DAV:   5    -0.125277014419E+04   -0.13157E+01   -0.13103E+01  2240   0.499E+00    0.832E+01
RMM:   6    -0.123924522924E+04    0.13525E+02   -0.10555E+02  1637   0.158E+01    0.945E+01
RMM:   7    -0.122562601608E+04    0.13619E+02   -0.14782E+01  1543   0.652E+00    0.639E+01
RMM:   8    -0.120848685255E+04    0.17139E+02   -0.11361E+01  1553   0.501E+00    0.428E+01
RMM:   9    -0.119604731613E+04    0.12440E+02   -0.13199E+01  1570   0.487E+00    0.349E+01
RMM:  10    -0.118176310646E+04    0.14284E+02   -0.17876E+01  1643   0.573E+00    0.238E+01
RMM:  11    -0.117664927770E+04    0.51138E+01   -0.12016E+01  1543   0.476E+00    0.158E+01
RMM:  12    -0.117727164516E+04   -0.62237E+00   -0.11135E+01  1588   0.455E+00    0.912E+00
RMM:  13    -0.117714133482E+04    0.13031E+00   -0.98858E-01  1594   0.194E+00    0.747E+00
RMM:  14    -0.117672528982E+04    0.41604E+00   -0.76356E-01  1544   0.121E+00    0.439E+00
RMM:  15    -0.117658709127E+04    0.13820E+00   -0.26399E-01  1549   0.806E-01    0.236E+00
RMM:  16    -0.117654881671E+04    0.38275E-01   -0.18829E-01  1536   0.620E-01    0.120E+00
RMM:  17    -0.117655492604E+04   -0.61093E-02   -0.49637E-02  1576   0.348E-01    0.775E-01
RMM:  18    -0.117655468613E+04    0.23991E-03   -0.10998E-02  1645   0.196E-01    0.402E-01
RMM:  19    -0.117655611414E+04   -0.14280E-02   -0.38481E-03  1646   0.916E-02    0.333E-01
RMM:  20    -0.117655653736E+04   -0.42322E-03   -0.10998E-03  1757   0.533E-02    0.247E-01
RMM:  21    -0.117655656999E+04   -0.32628E-04   -0.31653E-04  1568   0.240E-02    0.203E-01
RMM:  22    -0.117655666410E+04   -0.94117E-04   -0.25202E-04  1570   0.236E-02    0.114E-01
RMM:  23    -0.117655669690E+04   -0.32799E-04   -0.51955E-05  1597   0.122E-02    0.792E-02
RMM:  24    -0.117655670353E+04   -0.66263E-05   -0.21375E-05  1556   0.713E-03    0.499E-02
RMM:  25    -0.117655671124E+04   -0.77127E-05   -0.85934E-06  1430   0.471E-03    0.324E-02
RMM:  26    -0.117655671254E+04   -0.13030E-05   -0.42416E-06  1140   0.288E-03    0.210E-02
RMM:  27    -0.117655671272E+04   -0.18175E-06   -0.15392E-06  1042   0.198E-03
   1 F= -.11837124E+04 E0= -.11837124E+04  d E =-.118371E+04  mag=     0.9999
       N       E                     dE             d eps       ncg     rms          rms(c)
DAV:   1    -0.117655240519E+04    0.43074E-02   -0.46199E-01  1600   0.151E+00    0.173E-01
RMM:   2    -0.117655440044E+04   -0.19953E-02   -0.22315E-02  1602   0.246E-01    0.146E-01
RMM:   3    -0.117655455361E+04   -0.15317E-03   -0.35988E-03  1787   0.943E-02    0.132E-01
RMM:   4    -0.117655438554E+04    0.16808E-03   -0.70962E-04  1699   0.394E-02    0.102E-01
RMM:   5    -0.117655432475E+04    0.60784E-04   -0.96633E-04  1583   0.395E-02    0.489E-02
RMM:   6    -0.117655434145E+04   -0.16696E-04   -0.20754E-04  1917   0.219E-02    0.443E-02
RMM:   7    -0.117655430723E+04    0.34216E-04   -0.80571E-05  1543   0.105E-02    0.287E-02
RMM:   8    -0.117655432348E+04   -0.16247E-04   -0.33692E-05  1578   0.851E-03    0.129E-02
RMM:   9    -0.117655432367E+04   -0.19072E-06   -0.10713E-05  1579   0.476E-03    0.901E-03
RMM:  10    -0.117655432388E+04   -0.21226E-06   -0.61721E-06  1443   0.349E-03
   2 F= -.11837106E+04 E0= -.11837106E+04  d E =0.185567E-02  mag=     1.0000
       N       E                     dE             d eps       ncg     rms          rms(c)
DAV:   1    -0.117655648388E+04   -0.21602E-02   -0.20686E-01  1664   0.101E+00    0.118E-01
RMM:   2    -0.117655722494E+04   -0.74105E-03   -0.86240E-03  1587   0.160E-01    0.971E-02
RMM:   3    -0.117655724241E+04   -0.17475E-04   -0.11804E-03  1685   0.590E-02    0.856E-02
RMM:   4    -0.117655717574E+04    0.66670E-04   -0.29976E-04  1691   0.262E-02    0.652E-02
RMM:   5    -0.117655715325E+04    0.22493E-04   -0.38450E-04  1578   0.252E-02    0.308E-02
RMM:   6    -0.117655715857E+04   -0.53266E-05   -0.75405E-05  1883   0.137E-02    0.270E-02
RMM:   7    -0.117655714867E+04    0.99053E-05   -0.38592E-05  1537   0.726E-03    0.161E-02
RMM:   8    -0.117655715572E+04   -0.70540E-05   -0.94664E-06  1521   0.499E-03    0.838E-03
RMM:   9    -0.117655715554E+04    0.18194E-06   -0.50672E-06  1389   0.310E-03
   3 F= -.11837131E+04 E0= -.11837131E+04  d E =-.618725E-03  mag=     1.0000
