       N       E                     dE             d eps       ncg     rms          rms(c)
DAV:   1     0.459129451968E+04    0.45913E+04   -0.17924E+05  1920   0.941E+02
DAV:   2    -0.797116171059E+02   -0.46710E+04   -0.42547E+04  2432   0.213E+02
DAV:   3    -0.118167716720E+04   -0.11020E+04   -0.10963E+04  1984   0.111E+02
DAV:   4    -0.122801776029E+04   -0.46341E+02   -0.46043E+02  1952   0.303E+01
DAV:   5    -0.122925534491E+04   -0.12376E+01   -0.12331E+01  2336   0.464E+00    0.694E+01
RMM:   6    -0.120819861205E+04    0.21057E+02   -0.40722E+01  1584   0.902E+00    0.723E+01
RMM:   7    -0.120161260304E+04    0.65860E+01   -0.91970E+00  1573   0.408E+00    0.595E+01
RMM:   8    -0.118105399402E+04    0.20559E+02   -0.26448E+01  1578   0.691E+00    0.377E+01
RMM:   9    -0.116257355576E+04    0.18480E+02   -0.30665E+01  1611   0.737E+00    0.254E+01
RMM:  10    -0.116023652726E+04    0.23370E+01   -0.79286E+00  1542   0.424E+00    0.170E+01
RMM:  11    -0.115941087159E+04    0.82566E+00   -0.75740E+00  1539   0.379E+00    0.109E+01
RMM:  12    -0.115972659860E+04   -0.31573E+00   -0.21978E+00  1585   0.239E+00    0.647E+00
RMM:  13    -0.115984502700E+04   -0.11843E+00   -0.50325E-01  1760   0.122E+00    0.464E+00
RMM:  14    -0.115960430195E+04    0.24073E+00   -0.28968E-01  1541   0.790E-01    0.295E+00
RMM:  15    -0.115952433531E+04    0.79967E-01   -0.43087E-01  1540   0.848E-01    0.115E+00
RMM:  16    -0.115953564137E+04   -0.11306E-01   -0.43865E-02  1572   0.367E-01    0.779E-01
RMM:  17    -0.115953967549E+04   -0.40341E-02   -0.13517E-02  1585   0.202E-01    0.450E-01
RMM:  18    -0.115954337803E+04   -0.37025E-02   -0.69238E-03  1668   0.122E-01    0.341E-01
RMM:  19    -0.115954642422E+04   -0.30462E-02   -0.24637E-03  1602   0.904E-02    0.183E-01
RMM:  20    -0.115954763721E+04   -0.12130E-02   -0.13343E-03  1583   0.679E-02    0.109E-01
RMM:  21    -0.115954789553E+04   -0.25832E-03   -0.65755E-04  1591   0.388E-02    0.599E-02
RMM:  22    -0.115954791230E+04   -0.16768E-04   -0.13518E-04  1627   0.169E-02    0.442E-02
RMM:  23    -0.115954795649E+04   -0.44191E-04   -0.91907E-05  1585   0.150E-02    0.385E-02
RMM:  24    -0.115954795974E+04   -0.32492E-05   -0.59521E-05  1558   0.105E-02    0.318E-02
RMM:  25    -0.115954796656E+04   -0.68143E-05   -0.26859E-05  1585   0.770E-03    0.180E-02
RMM:  26    -0.115954797716E+04   -0.10604E-04   -0.14623E-05  1572   0.531E-03    0.147E-02
RMM:  27    -0.115954798120E+04   -0.40444E-05   -0.99900E-06  1338   0.450E-03    0.700E-03
RMM:  28    -0.115954798547E+04   -0.42628E-05   -0.63778E-06  1178   0.360E-03    0.544E-03
RMM:  29    -0.115954798791E+04   -0.24462E-05   -0.64734E-06  1175   0.360E-03    0.495E-03
RMM:  30    -0.115954799187E+04   -0.39585E-05   -0.42464E-06  1134   0.281E-03    0.476E-03
RMM:  31    -0.115954799480E+04   -0.29323E-05   -0.19787E-06  1083   0.201E-03    0.393E-03
RMM:  32    -0.115954799586E+04   -0.10548E-05   -0.18965E-06  1076   0.199E-03    0.245E-03
RMM:  33    -0.115954799738E+04   -0.15178E-05   -0.57852E-07   954   0.107E-03    0.209E-03
RMM:  34    -0.115954799786E+04   -0.48779E-06   -0.22992E-07   898   0.727E-04
   1 F= -.11595480E+04 E0= -.11595426E+04  d E =-.115955E+04  mag=    -0.8331
       N       E                     dE             d eps       ncg     rms          rms(c)
DAV:   1    -0.115947488955E+04    0.73108E-01   -0.84463E+00  1728   0.612E+00    0.762E-01
RMM:   2    -0.115951564918E+04   -0.40760E-01   -0.43932E-01  1595   0.111E+00    0.879E-01
RMM:   3    -0.115952479848E+04   -0.91493E-02   -0.97454E-02  1879   0.437E-01    0.763E-01
RMM:   4    -0.115952448498E+04    0.31350E-03   -0.15510E-02  1955   0.157E-01    0.753E-01
RMM:   5    -0.115952059442E+04    0.38906E-02   -0.57988E-03  1576   0.957E-02    0.610E-01
RMM:   6    -0.115952027671E+04    0.31771E-03   -0.26294E-02  1571   0.188E-01    0.464E-01
RMM:   7    -0.115951985312E+04    0.42360E-03   -0.25033E-03  1627   0.875E-02    0.424E-01
RMM:   8    -0.115951899116E+04    0.86195E-03   -0.12725E-03  1571   0.531E-02    0.269E-01
RMM:   9    -0.115951916115E+04   -0.16999E-03   -0.42687E-04  1755   0.299E-02    0.223E-01
RMM:  10    -0.115951899688E+04    0.16428E-03   -0.15286E-04  1559   0.170E-02    0.182E-01
RMM:  11    -0.115951884102E+04    0.15586E-03   -0.37254E-04  1606   0.229E-02    0.114E-01
RMM:  12    -0.115951885978E+04   -0.18764E-04   -0.29013E-05  1531   0.103E-02    0.105E-01
RMM:  13    -0.115951882751E+04    0.32273E-04   -0.63897E-05  1600   0.102E-02    0.667E-02
RMM:  14    -0.115951881147E+04    0.16039E-04   -0.52924E-05  1604   0.844E-03    0.430E-02
RMM:  15    -0.115951881113E+04    0.34325E-06   -0.10753E-05  1483   0.511E-03    0.299E-02
RMM:  16    -0.115951880983E+04    0.12981E-05   -0.62403E-06  1268   0.339E-03    0.143E-02
RMM:  17    -0.115951880960E+04    0.23255E-06   -0.32888E-06  1181   0.236E-03
   2 F= -.11595188E+04 E0= -.11595130E+04  d E =0.291883E-01  mag=    -0.8160
       N       E                     dE             d eps       ncg     rms          rms(c)
DAV:   1    -0.115953741772E+04   -0.18608E-01   -0.40672E+00  1696   0.422E+00    0.526E-01
RMM:   2    -0.115955524511E+04   -0.17827E-01   -0.19666E-01  1568   0.757E-01    0.594E-01
RMM:   3    -0.115955794046E+04   -0.26953E-02   -0.31726E-02  1786   0.287E-01    0.507E-01
RMM:   4    -0.115955755250E+04    0.38796E-03   -0.68968E-03  1854   0.111E-01    0.501E-01
RMM:   5    -0.115955597471E+04    0.15778E-02   -0.23048E-03  1577   0.640E-02    0.396E-01
RMM:   6    -0.115955581578E+04    0.15893E-03   -0.11979E-02  1710   0.125E-01    0.257E-01
RMM:   7    -0.115955552275E+04    0.29303E-03   -0.68394E-04  1572   0.498E-02    0.234E-01
RMM:   8    -0.115955542980E+04    0.92949E-04   -0.19095E-04  1729   0.214E-02    0.198E-01
RMM:   9    -0.115955538786E+04    0.41938E-04   -0.27298E-04  1595   0.194E-02    0.125E-01
RMM:  10    -0.115955536197E+04    0.25894E-04   -0.63310E-05  1677   0.120E-02    0.104E-01
RMM:  11    -0.115955531626E+04    0.45710E-04   -0.88225E-05  1609   0.113E-02    0.705E-02
RMM:  12    -0.115955531361E+04    0.26507E-05   -0.14096E-05  1555   0.548E-03    0.589E-02
RMM:  13    -0.115955530869E+04    0.49205E-05   -0.92583E-06  1481   0.424E-03    0.445E-02
RMM:  14    -0.115955530516E+04    0.35225E-05   -0.10381E-05  1483   0.407E-03    0.273E-02
RMM:  15    -0.115955530493E+04    0.23155E-06   -0.25460E-06  1131   0.231E-03
   3 F= -.11595553E+04 E0= -.11595497E+04  d E =-.730707E-02  mag=    -0.8277
       N       E                     dE             d eps       ncg     rms          rms(c)
DAV:   1    -0.115954913867E+04    0.61665E-02   -0.10744E+00  1760   0.255E+00    0.304E-01
RMM:   2    -0.115955625069E+04   -0.71120E-02   -0.74111E-02  1557   0.415E-01    0.278E-01
RMM:   3    -0.115955710485E+04   -0.85416E-03   -0.10251E-02  1747   0.150E-01    0.220E-01
RMM:   4    -0.115955714187E+04   -0.37018E-04   -0.15125E-03  1855   0.563E-02    0.209E-01
RMM:   5    -0.115955705787E+04    0.83999E-04   -0.34609E-04  1607   0.246E-02    0.162E-01
RMM:   6    -0.115955715109E+04   -0.93221E-04   -0.10287E-03  1619   0.396E-02    0.809E-02
RMM:   7    -0.115955709099E+04    0.60098E-04   -0.12674E-04  1600   0.188E-02    0.577E-02
RMM:   8    -0.115955709180E+04   -0.80275E-06   -0.32418E-05  1786   0.815E-03    0.531E-02
RMM:   9    -0.115955706612E+04    0.25673E-04   -0.66307E-05  1596   0.995E-03    0.363E-02
RMM:  10    -0.115955706708E+04   -0.96147E-06   -0.30428E-05  1669   0.725E-03    0.217E-02
RMM:  11    -0.115955706691E+04    0.17086E-06   -0.26781E-06  1100   0.296E-03
   4 F= -.11595571E+04 E0= -.11595515E+04  d E =-.176198E-02  mag=    -0.8293
       N       E                     dE             d eps       ncg     rms          rms(c)
DAV:   1    -0.115955678114E+04    0.28595E-03   -0.12362E-01  1664   0.866E-01    0.101E-01
RMM:   2    -0.115955759664E+04   -0.81550E-03   -0.85012E-03  1560   0.140E-01    0.902E-02
RMM:   3    -0.115955769277E+04   -0.96125E-04   -0.11675E-03  1749   0.507E-02    0.721E-02
RMM:   4    -0.115955769521E+04   -0.24470E-05   -0.17106E-04  1854   0.188E-02    0.684E-02
RMM:   5    -0.115955768425E+04    0.10964E-04   -0.36228E-05  1573   0.805E-03    0.531E-02
RMM:   6    -0.115955769480E+04   -0.10552E-04   -0.13268E-04  1649   0.142E-02    0.254E-02
RMM:   7    -0.115955768784E+04    0.69593E-05   -0.14215E-05  1550   0.637E-03    0.184E-02
RMM:   8    -0.115955768774E+04    0.98335E-07   -0.36118E-06  1157   0.285E-03
   5 F= -.11595577E+04 E0= -.11595522E+04  d E =-.238281E-02  mag=    -0.8287
       N       E                     dE             d eps       ncg     rms          rms(c)
DAV:   1    -0.115955701219E+04    0.67566E-03   -0.58838E-01  1664   0.162E+00    0.183E-01
RMM:   2    -0.115955873334E+04   -0.17212E-02   -0.19323E-02  1565   0.241E-01    0.163E-01
RMM:   3    -0.115955892872E+04   -0.19538E-03   -0.33004E-03  1736   0.930E-02    0.145E-01
RMM:   4    -0.115955883931E+04    0.89411E-04   -0.48319E-04  1800   0.351E-02    0.127E-01
RMM:   5    -0.115955870698E+04    0.13233E-03   -0.47238E-04  1557   0.278E-02    0.727E-02
RMM:   6    -0.115955874693E+04   -0.39948E-04   -0.49436E-04  1568   0.279E-02    0.414E-02
RMM:   7    -0.115955871631E+04    0.30621E-04   -0.46415E-05  1564   0.127E-02    0.315E-02
RMM:   8    -0.115955870824E+04    0.80709E-05   -0.73736E-05  1554   0.971E-03    0.151E-02
RMM:   9    -0.115955870756E+04    0.68058E-06   -0.92118E-06  1535   0.536E-03
   6 F= -.11595587E+04 E0= -.11595532E+04  d E =-.101981E-02  mag=    -0.8305
       N       E                     dE             d eps       ncg     rms          rms(c)
DAV:   1    -0.115955881898E+04   -0.11074E-03   -0.59494E-02  1664   0.517E-01    0.586E-02
RMM:   2    -0.115955899194E+04   -0.17296E-03   -0.19393E-03  1564   0.759E-02    0.519E-02
RMM:   3    -0.115955901125E+04   -0.19310E-04   -0.32820E-04  1735   0.293E-02    0.460E-02
RMM:   4    -0.115955900296E+04    0.82849E-05   -0.52055E-05  1786   0.114E-02    0.399E-02
RMM:   5    -0.115955898979E+04    0.13170E-04   -0.41810E-05  1552   0.842E-03    0.230E-02
RMM:   6    -0.115955899334E+04   -0.35433E-05   -0.47639E-05  1550   0.876E-03    0.118E-02
RMM:   7    -0.115955899033E+04    0.30060E-05   -0.49568E-06  1447   0.403E-03    0.855E-03
RMM:   8    -0.115955898987E+04    0.46173E-06   -0.52279E-06  1336   0.274E-03
   7 F= -.11595590E+04 E0= -.11595535E+04  d E =-.130212E-02  mag=    -0.8299
       N       E                     dE             d eps       ncg     rms          rms(c)
DAV:   1    -0.115955850621E+04    0.48412E-03   -0.39274E-01  1664   0.137E+00    0.141E-01
RMM:   2    -0.115955984753E+04   -0.13413E-02   -0.14944E-02  1569   0.198E-01    0.118E-01
RMM:   3    -0.115955996268E+04   -0.11515E-03   -0.22702E-03  1688   0.751E-02    0.108E-01
RMM:   4    -0.115955990652E+04    0.56157E-04   -0.31990E-04  1755   0.286E-02    0.941E-02
RMM:   5    -0.115955984867E+04    0.57849E-04   -0.62353E-04  1556   0.314E-02    0.337E-02
RMM:   6    -0.115955985522E+04   -0.65493E-05   -0.11829E-04  1682   0.164E-02    0.269E-02
RMM:   7    -0.115955984478E+04    0.10439E-04   -0.17627E-05  1666   0.669E-03    0.214E-02
RMM:   8    -0.115955984205E+04    0.27283E-05   -0.26697E-05  1523   0.577E-03    0.973E-03
RMM:   9    -0.115955984252E+04   -0.47330E-06   -0.76939E-06  1505   0.378E-03
   8 F= -.11595598E+04 E0= -.11595543E+04  d E =-.852656E-03  mag=    -0.8293
       N       E                     dE             d eps       ncg     rms          rms(c)
DAV:   1    -0.115955984037E+04    0.16805E-05   -0.13285E-02  1664   0.253E-01    0.256E-02
RMM:   2    -0.115955988563E+04   -0.45258E-04   -0.50527E-04  1566   0.364E-02    0.218E-02
RMM:   3    -0.115955988928E+04   -0.36491E-05   -0.77160E-05  1702   0.138E-02    0.202E-02
RMM:   4    -0.115955988703E+04    0.22493E-05   -0.10264E-05  1592   0.518E-03    0.177E-02
RMM:   5    -0.115955988353E+04    0.34938E-05   -0.22489E-05  1557   0.605E-03    0.591E-03
RMM:   6    -0.115955988388E+04   -0.34191E-06   -0.45477E-06  1448   0.323E-03
   9 F= -.11595599E+04 E0= -.11595544E+04  d E =-.894008E-03  mag=    -0.8295
