       N       E                     dE             d eps       ncg     rms          rms(c)
DAV:   1     0.476325658789E+04    0.47633E+04   -0.17519E+05  1908   0.913E+02
DAV:   2    -0.772181495933E+02   -0.48405E+04   -0.44196E+04  2520   0.208E+02
DAV:   3    -0.118373441889E+04   -0.11065E+04   -0.11005E+04  2088   0.111E+02
DAV:   4    -0.123918916696E+04   -0.55455E+02   -0.55177E+02  2052   0.331E+01
DAV:   5    -0.124130587193E+04   -0.21167E+01   -0.21107E+01  2412   0.617E+00    0.615E+01
RMM:   6    -0.122788587515E+04    0.13420E+02   -0.77018E+00  1720   0.337E+00    0.500E+01
RMM:   7    -0.118860335622E+04    0.39283E+02   -0.59478E+01  1880   0.992E+00    0.296E+01
RMM:   8    -0.117850389908E+04    0.10099E+02   -0.15259E+01  1762   0.780E+00    0.224E+01
RMM:   9    -0.117557964786E+04    0.29243E+01   -0.35004E+01  1852   0.849E+00    0.954E+00
RMM:  10    -0.117607817823E+04   -0.49853E+00   -0.33974E+00  1867   0.624E+00    0.789E+00
RMM:  11    -0.117527458183E+04    0.80360E+00   -0.13857E+00  1884   0.164E+00    0.404E+00
RMM:  12    -0.117514282852E+04    0.13175E+00   -0.43304E-01  1746   0.142E+00    0.153E+00
RMM:  13    -0.117511735636E+04    0.25472E-01   -0.22415E-01  1892   0.815E-01    0.693E-01
RMM:  14    -0.117511358017E+04    0.37762E-02   -0.38743E-02  1959   0.339E-01    0.473E-01
RMM:  15    -0.117511272714E+04    0.85303E-03   -0.46397E-03  1816   0.114E-01    0.374E-01
RMM:  16    -0.117511263062E+04    0.96526E-04   -0.11275E-03  1542   0.747E-02    0.281E-01
RMM:  17    -0.117511273552E+04   -0.10491E-03   -0.63280E-04  1365   0.630E-02    0.179E-01
RMM:  18    -0.117511281351E+04   -0.77981E-04   -0.28549E-04  1167   0.492E-02
   1 F= -.11821597E+04 E0= -.11821597E+04  d E =-.118216E+04  mag=     0.9988
       N       E                     dE             d eps       ncg     rms          rms(c)
DAV:   1    -0.117511034368E+04    0.23918E-02   -0.42394E-01  1764   0.117E+00    0.181E-01
RMM:   2    -0.117511185002E+04   -0.15063E-02   -0.17909E-02  1922   0.202E-01    0.170E-01
RMM:   3    -0.117511173334E+04    0.11667E-03   -0.16204E-03  1510   0.113E-01    0.157E-01
RMM:   4    -0.117511125718E+04    0.47616E-03   -0.78507E-04  1563   0.590E-02    0.104E-01
RMM:   5    -0.117511119251E+04    0.64677E-04   -0.21032E-03  1821   0.682E-02    0.565E-02
RMM:   6    -0.117511115419E+04    0.38316E-04   -0.22979E-04  1180   0.523E-02
   2 F= -.11821580E+04 E0= -.11821580E+04  d E =0.165615E-02  mag=     0.9999
       N       E                     dE             d eps       ncg     rms          rms(c)
DAV:   1    -0.117511345943E+04   -0.22669E-02   -0.18319E-01  1836   0.764E-01    0.110E-01
RMM:   2    -0.117511385705E+04   -0.39762E-03   -0.54323E-03  1890   0.125E-01    0.101E-01
RMM:   3    -0.117511376889E+04    0.88163E-04   -0.49612E-04  1294   0.673E-02
   3 F= -.11821606E+04 E0= -.11821606E+04  d E =-.954268E-03  mag=     1.0000
