       N       E                     dE             d eps       ncg     rms          rms(c)
DAV:   1     0.490279170280E+04    0.49028E+04   -0.17167E+05  1728   0.989E+02
DAV:   2     0.220270653780E+02   -0.48808E+04   -0.44781E+04  2232   0.217E+02
DAV:   3    -0.118173138584E+04   -0.12038E+04   -0.11968E+04  1872   0.119E+02
DAV:   4    -0.123574598228E+04   -0.54015E+02   -0.53635E+02  1836   0.334E+01
DAV:   5    -0.123702562303E+04   -0.12796E+01   -0.12763E+01  2052   0.488E+00    0.624E+01
RMM:   6    -0.122121809850E+04    0.15808E+02   -0.89591E+00  1444   0.353E+00    0.513E+01
RMM:   7    -0.118028527246E+04    0.40933E+02   -0.10267E+02  1453   0.114E+01    0.301E+01
RMM:   8    -0.117492354907E+04    0.53617E+01   -0.57438E+00  1484   0.289E+00    0.256E+01
RMM:   9    -0.117003162236E+04    0.48919E+01   -0.19371E+01  1442   0.520E+00    0.155E+01
RMM:  10    -0.117059523905E+04   -0.56362E+00   -0.13236E+01  1440   0.446E+00    0.958E+00
RMM:  11    -0.116847384106E+04    0.21214E+01   -0.31885E+00  1471   0.164E+00    0.543E+00
RMM:  12    -0.116803629284E+04    0.43755E+00   -0.10257E+00  1443   0.112E+00    0.246E+00
RMM:  13    -0.116796352052E+04    0.72772E-01   -0.47835E-01  1446   0.785E-01    0.125E+00
RMM:  14    -0.116791098161E+04    0.52539E-01   -0.46076E-02  1498   0.253E-01    0.782E-01
RMM:  15    -0.116791005451E+04    0.92711E-03   -0.26024E-02  1469   0.167E-01    0.597E-01
RMM:  16    -0.116790573419E+04    0.43203E-02   -0.81640E-03  1442   0.108E-01    0.347E-01
RMM:  17    -0.116790408307E+04    0.16511E-02   -0.42450E-03  1422   0.607E-02    0.213E-01
RMM:  18    -0.116790422791E+04   -0.14484E-03   -0.15364E-03  1366   0.444E-02    0.104E-01
RMM:  19    -0.116790404622E+04    0.18169E-03   -0.15614E-03  1456   0.425E-02    0.947E-02
RMM:  20    -0.116790401536E+04    0.30855E-04   -0.12886E-04   957   0.137E-02
   1 F= -.11751449E+04 E0= -.11751449E+04  d E =-.117514E+04  mag=     0.0017
       N       E                     dE             d eps       ncg     rms          rms(c)
DAV:   1    -0.116790620721E+04   -0.21610E-02   -0.36191E-01  1512   0.103E+00    0.283E-01
RMM:   2    -0.116790606225E+04    0.14495E-03   -0.10577E-02  1483   0.155E-01    0.252E-01
RMM:   3    -0.116790419771E+04    0.18645E-02   -0.17505E-03  1440   0.536E-02    0.174E-01
RMM:   4    -0.116790317929E+04    0.10184E-02   -0.49037E-03  1440   0.824E-02    0.711E-02
RMM:   5    -0.116790315549E+04    0.23797E-04   -0.14399E-04   926   0.180E-02
   2 F= -.11751445E+04 E0= -.11751445E+04  d E =0.399085E-03  mag=     0.0010
       N       E                     dE             d eps       ncg     rms          rms(c)
DAV:   1    -0.116790538158E+04   -0.22023E-02   -0.10446E-01  1584   0.552E-01    0.142E-01
RMM:   2    -0.116790528027E+04    0.10130E-03   -0.25765E-03  1478   0.784E-02    0.124E-01
RMM:   3    -0.116790479814E+04    0.48213E-03   -0.36840E-04  1066   0.257E-02    0.882E-02
RMM:   4    -0.116790448123E+04    0.31692E-03   -0.13977E-03  1440   0.447E-02    0.337E-02
RMM:   5    -0.116790448104E+04    0.18660E-06   -0.34311E-05   877   0.925E-03
   3 F= -.11751456E+04 E0= -.11751456E+04  d E =-.673280E-03  mag=     0.0009
