       N       E                     dE             d eps       ncg     rms          rms(c)
DAV:   1     0.482635268296E+04    0.48264E+04   -0.18150E+05  1908   0.932E+02
DAV:   2    -0.684409902806E+02   -0.48948E+04   -0.44885E+04  2520   0.214E+02
DAV:   3    -0.120437112350E+04   -0.11359E+04   -0.11294E+04  2124   0.111E+02
DAV:   4    -0.125044663155E+04   -0.46076E+02   -0.45767E+02  2016   0.291E+01
DAV:   5    -0.125164561846E+04   -0.11990E+01   -0.11955E+01  2376   0.450E+00    0.102E+02
RMM:   6    -0.125254885927E+04   -0.90324E+00   -0.21122E+02  1879   0.184E+01    0.997E+01
RMM:   7    -0.123208985025E+04    0.20459E+02   -0.10088E+01  1602   0.502E+00    0.730E+01
RMM:   8    -0.119627049221E+04    0.35819E+02   -0.34941E+01  1589   0.812E+00    0.403E+01
RMM:   9    -0.122895110106E+04   -0.32681E+02   -0.53198E+01  1594   0.835E+00    0.913E+01
RMM:  10    -0.117475161439E+04    0.54199E+02   -0.94035E+00  1636   0.388E+00    0.369E+01
RMM:  11    -0.117176341387E+04    0.29882E+01   -0.15258E+01  1603   0.504E+00    0.196E+01
RMM:  12    -0.117063979142E+04    0.11236E+01   -0.76212E+00  1588   0.335E+00    0.125E+01
RMM:  13    -0.117077615901E+04   -0.13637E+00   -0.31717E+00  1607   0.233E+00    0.182E+01
RMM:  14    -0.117048613242E+04    0.29003E+00   -0.14990E-01  1713   0.681E-01    0.178E+01
RMM:  15    -0.116975614590E+04    0.72999E+00   -0.46836E-01  1586   0.892E-01    0.770E+00
RMM:  16    -0.116970145784E+04    0.54688E-01   -0.13963E+00  1586   0.159E+00    0.730E+00
RMM:  17    -0.116970554632E+04   -0.40885E-02   -0.16174E-01  1605   0.615E-01    0.749E+00
RMM:  18    -0.116950992184E+04    0.19562E+00   -0.64564E-02  1606   0.304E-01    0.552E+00
RMM:  19    -0.116947232421E+04    0.37598E-01   -0.41652E-02  1678   0.184E-01    0.210E+00
RMM:  20    -0.116950188313E+04   -0.29559E-01   -0.61058E-03  1604   0.163E-01    0.198E+00
RMM:  21    -0.116950728085E+04   -0.53977E-02   -0.11058E-02  1617   0.129E-01    0.620E+00
RMM:  22    -0.116948166439E+04    0.25616E-01   -0.45582E-03  1545   0.160E-01    0.442E+00
RMM:  23    -0.116953931263E+04   -0.57648E-01   -0.16334E-02  1626   0.170E-01    0.957E+00
RMM:  24    -0.116949458278E+04    0.44730E-01   -0.92882E-03  1569   0.161E-01    0.935E+00
RMM:  25    -0.116942326856E+04    0.71314E-01   -0.13441E-02  1605   0.122E-01    0.339E+00
RMM:  26    -0.116947030949E+04   -0.47041E-01   -0.34798E-03  1500   0.157E-01    0.376E+00
RMM:  27    -0.116947046924E+04   -0.15975E-03   -0.99751E-04  1256   0.415E-02    0.279E+00
RMM:  28    -0.116947953271E+04   -0.90635E-02   -0.10731E-03  1327   0.523E-02    0.382E+00
RMM:  29    -0.116947151236E+04    0.80203E-02   -0.69379E-04  1173   0.514E-02    0.251E+00
RMM:  30    -0.116947659665E+04   -0.50843E-02   -0.20082E-04  1055   0.317E-02    0.237E+00
RMM:  31    -0.116947815096E+04   -0.15543E-02   -0.57728E-05  1001   0.165E-02    0.261E+00
RMM:  32    -0.116947519393E+04    0.29570E-02   -0.75747E-04  1184   0.335E-02    0.119E+00
RMM:  33    -0.116947932273E+04   -0.41288E-02   -0.69375E-04  1294   0.461E-02    0.164E+00
RMM:  34    -0.116947758600E+04    0.17367E-02   -0.12364E-04  1045   0.204E-02    0.122E+00
RMM:  35    -0.116947830549E+04   -0.71949E-03   -0.28120E-04  1105   0.244E-02    0.102E+00
RMM:  36    -0.116947882156E+04   -0.51607E-03   -0.49485E-04  1195   0.327E-02    0.550E-01
RMM:  37    -0.116947980035E+04   -0.97879E-03   -0.17571E-04  1057   0.334E-02    0.368E-01
RMM:  38    -0.116947967407E+04    0.12628E-03   -0.23475E-04  1102   0.217E-02    0.286E-01
RMM:  39    -0.116947955931E+04    0.11476E-03   -0.16473E-04  1068   0.162E-02    0.233E-01
RMM:  40    -0.116947951293E+04    0.46385E-04   -0.52449E-05  1003   0.117E-02
   1 F= -.11765567E+04 E0= -.11765292E+04  d E =-.117656E+04  mag=     0.0055
       N       E                     dE             d eps       ncg     rms          rms(c)
DAV:   1    -0.116922043977E+04    0.25912E+00   -0.90424E+00  1800   0.125E+01    0.566E+00
RMM:   2    -0.116991432147E+04   -0.69388E+00   -0.46442E+00  1752   0.174E+00    0.114E+01
RMM:   3    -0.116944565608E+04    0.46867E+00   -0.23238E-01  1658   0.687E-01    0.178E+00
RMM:   4    -0.116948793038E+04   -0.42274E-01   -0.34234E-02  1652   0.269E-01    0.640E-01
RMM:   5    -0.116948665833E+04    0.12720E-02   -0.29319E-03  1591   0.704E-02    0.882E-01
RMM:   6    -0.116948540768E+04    0.12507E-02   -0.11546E-03  1491   0.472E-02    0.112E+00
RMM:   7    -0.116948602771E+04   -0.62003E-03   -0.27718E-03  1567   0.760E-02    0.167E+00
RMM:   8    -0.116948441294E+04    0.16148E-02   -0.20609E-03  1531   0.724E-02    0.404E-01
RMM:   9    -0.116948656880E+04   -0.21559E-02   -0.53546E-04  1240   0.394E-02    0.952E-01
RMM:  10    -0.116948584970E+04    0.71910E-03   -0.77889E-05  1010   0.197E-02    0.770E-01
RMM:  11    -0.116948575538E+04    0.94312E-04   -0.37802E-05   997   0.123E-02
   2 F= -.11765619E+04 E0= -.11765351E+04  d E =-.519065E-02  mag=    -0.0068
       N       E                     dE             d eps       ncg     rms          rms(c)
DAV:   1    -0.116946052923E+04    0.25320E-01   -0.15490E+00  1764   0.484E+00    0.437E+00
RMM:   2    -0.116969781297E+04   -0.23728E+00   -0.74054E-01  1698   0.813E-01    0.773E+00
RMM:   3    -0.116948575804E+04    0.21205E+00   -0.68364E-02  1616   0.386E-01    0.300E+00
RMM:   4    -0.116948435185E+04    0.14062E-02   -0.13094E-02  1610   0.115E-01    0.103E+00
RMM:   5    -0.116949153071E+04   -0.71789E-02   -0.19941E-03  1434   0.106E-01    0.645E-01
RMM:   6    -0.116949098277E+04    0.54794E-03   -0.16948E-04  1050   0.223E-02    0.590E-01
RMM:   7    -0.116949075111E+04    0.23166E-03   -0.10389E-04  1015   0.154E-02    0.339E-01
RMM:   8    -0.116949107258E+04   -0.32147E-03   -0.61578E-05   998   0.159E-02    0.321E-01
RMM:   9    -0.116949070457E+04    0.36801E-03   -0.10378E-03  1470   0.380E-02    0.406E-01
RMM:  10    -0.116949090747E+04   -0.20289E-03   -0.23354E-04  1060   0.262E-02    0.196E-01
RMM:  11    -0.116949106317E+04   -0.15570E-03   -0.36597E-05   982   0.138E-02    0.155E-01
RMM:  12    -0.116949096199E+04    0.10118E-03   -0.38432E-05   984   0.949E-03    0.752E-02
RMM:  13    -0.116949100817E+04   -0.46175E-04   -0.68249E-05   981   0.123E-02
   3 F= -.11765675E+04 E0= -.11765412E+04  d E =-.108506E-01  mag=     0.0019
       N       E                     dE             d eps       ncg     rms          rms(c)
DAV:   1    -0.116937023684E+04    0.12073E+00   -0.31725E+00  1836   0.806E+00    0.333E+00
RMM:   2    -0.116969506715E+04   -0.32483E+00   -0.20323E+00  1752   0.103E+00    0.101E+01
RMM:   3    -0.116945989881E+04    0.23517E+00   -0.10512E-01  1622   0.482E-01    0.140E+00
RMM:   4    -0.116950125418E+04   -0.41355E-01   -0.15689E-02  1570   0.229E-01    0.331E-01
RMM:   5    -0.116950117658E+04    0.77596E-04   -0.96814E-04  1282   0.502E-02
   4 F= -.11765773E+04 E0= -.11765524E+04  d E =-.981393E-02  mag=    -0.0005
       N       E                     dE             d eps       ncg     rms          rms(c)
DAV:   1    -0.116838443928E+04    0.11168E+01   -0.31113E+01  1908   0.236E+01    0.545E+00
RMM:   2    -0.116992722709E+04   -0.15428E+01   -0.16204E+01  1820   0.305E+00    0.808E+00
RMM:   3    -0.116951946002E+04    0.40777E+00   -0.45555E-01  1656   0.769E-01    0.432E+00
RMM:   4    -0.116950086099E+04    0.18599E-01   -0.91459E-02  1682   0.326E-01    0.229E+00
RMM:   5    -0.116949701022E+04    0.38508E-02   -0.38969E-03  1405   0.668E-02    0.213E+00
RMM:   6    -0.116949707512E+04   -0.64897E-04   -0.25989E-04  1112   0.224E-02
   5 F= -.11765722E+04 E0= -.11765587E+04  d E =-.465841E-02  mag=     0.0052
       N       E                     dE             d eps       ncg     rms          rms(c)
DAV:   1    -0.116631769619E+04    0.31793E+01   -0.15731E+02  1944   0.438E+01    0.522E+00
RMM:   2    -0.116962198575E+04   -0.33043E+01   -0.35106E+01  1864   0.563E+00    0.388E+00
RMM:   3    -0.116935871243E+04    0.26327E+00   -0.13974E+00  1677   0.119E+00    0.368E+00
RMM:   4    -0.116931559268E+04    0.43120E-01   -0.14328E-01  1797   0.326E-01    0.258E+00
RMM:   5    -0.116929973761E+04    0.15855E-01   -0.26972E-02  1687   0.151E-01    0.225E+00
RMM:   6    -0.116930281112E+04   -0.30735E-02   -0.66882E-02  1592   0.300E-01    0.190E+00
RMM:   7    -0.116930509150E+04   -0.22804E-02   -0.13019E-02  1624   0.138E-01    0.142E+00
RMM:   8    -0.116930929745E+04   -0.42059E-02   -0.56544E-03  1587   0.988E-02    0.114E+00
RMM:   9    -0.116930701063E+04    0.22868E-02   -0.18479E-03  1374   0.588E-02    0.761E-01
RMM:  10    -0.116932598600E+04   -0.18975E-01   -0.85801E-03  1563   0.937E-02    0.315E+00
RMM:  11    -0.116932105941E+04    0.49266E-02   -0.32948E-03  1550   0.117E-01    0.397E+00
RMM:  12    -0.116929522017E+04    0.25839E-01   -0.32782E-03  1562   0.774E-02    0.179E+00
RMM:  13    -0.116929906615E+04   -0.38460E-02   -0.81513E-03  1595   0.128E-01    0.685E-01
RMM:  14    -0.116930924996E+04   -0.10184E-01   -0.14107E-03  1386   0.871E-02    0.297E-01
RMM:  15    -0.116930953419E+04   -0.28423E-03   -0.71191E-04  1335   0.414E-02    0.214E-01
RMM:  16    -0.116931040134E+04   -0.86715E-03   -0.42311E-04  1154   0.362E-02    0.166E-01
RMM:  17    -0.116931043318E+04   -0.31846E-04   -0.11727E-04  1023   0.199E-02
   6 F= -.11763839E+04 E0= -.11763759E+04  d E =0.183601E+00  mag=     0.0043
       N       E                     dE             d eps       ncg     rms          rms(c)
DAV:   1    -0.116743984265E+04    0.18706E+01   -0.13817E+02  1944   0.397E+01    0.109E+01
RMM:   2    -0.117130811012E+04   -0.38683E+01   -0.37700E+01  1747   0.540E+00    0.988E+00
RMM:   3    -0.116962334846E+04    0.16848E+01   -0.12540E+00  1670   0.127E+00    0.590E+00
RMM:   4    -0.116951072322E+04    0.11263E+00   -0.23542E-01  1743   0.483E-01    0.564E+00
RMM:   5    -0.116946126650E+04    0.49457E-01   -0.26342E-02  1630   0.282E-01    0.184E+00
RMM:   6    -0.116954507846E+04   -0.83812E-01   -0.40662E-02  1623   0.267E-01    0.479E+00
RMM:   7    -0.116950260103E+04    0.42477E-01   -0.36295E-02  1633   0.222E-01    0.314E+00
RMM:   8    -0.116949781812E+04    0.47829E-02   -0.37608E-03  1486   0.832E-02    0.260E+00
RMM:   9    -0.116948840872E+04    0.94094E-02   -0.47967E-03  1567   0.892E-02    0.151E+00
RMM:  10    -0.116949934532E+04   -0.10937E-01   -0.20144E-03  1330   0.568E-02    0.247E+00
RMM:  11    -0.116949536241E+04    0.39829E-02   -0.30269E-03  1535   0.886E-02    0.183E+00
RMM:  12    -0.116949839191E+04   -0.30295E-02   -0.20523E-03  1347   0.830E-02    0.223E+00
RMM:  13    -0.116949548599E+04    0.29059E-02   -0.86508E-04  1232   0.463E-02    0.215E+00
RMM:  14    -0.116948537356E+04    0.10112E-01   -0.13237E-03  1355   0.704E-02    0.120E+00
RMM:  15    -0.116949023810E+04   -0.48645E-02   -0.58388E-04  1208   0.407E-02    0.736E-01
RMM:  16    -0.116949247819E+04   -0.22401E-02   -0.32556E-04  1102   0.332E-02    0.472E-01
RMM:  17    -0.116949371696E+04   -0.12388E-02   -0.19418E-04  1036   0.264E-02    0.460E-01
RMM:  18    -0.116949400742E+04   -0.29046E-03   -0.31676E-05   986   0.131E-02    0.472E-01
RMM:  19    -0.116949394180E+04    0.65625E-04   -0.22035E-05   952   0.807E-03
   7 F= -.11765688E+04 E0= -.11765483E+04  d E =-.130198E-02  mag=     0.0024
       N       E                     dE             d eps       ncg     rms          rms(c)
DAV:   1    -0.116950696847E+04   -0.12961E-01   -0.39014E+00  1584   0.397E+00    0.314E+00
RMM:   2    -0.116961079542E+04   -0.10383E+00   -0.32425E-01  1665   0.754E-01    0.528E+00
RMM:   3    -0.116950943217E+04    0.10136E+00   -0.39268E-02  1661   0.309E-01    0.176E+00
RMM:   4    -0.116951555102E+04   -0.61188E-02   -0.33603E-03  1566   0.908E-02    0.197E+00
RMM:   5    -0.116950704588E+04    0.85051E-02   -0.16307E-03  1374   0.648E-02    0.527E-01
RMM:   6    -0.116951460845E+04   -0.75626E-02   -0.89657E-04  1384   0.680E-02    0.462E-01
RMM:   7    -0.116951390111E+04    0.70733E-03   -0.28827E-03  1578   0.624E-02    0.478E-01
RMM:   8    -0.116951269329E+04    0.12078E-02   -0.22963E-04  1089   0.279E-02    0.472E-01
RMM:   9    -0.116951142232E+04    0.12710E-02   -0.32719E-03  1594   0.638E-02    0.563E-01
RMM:  10    -0.116951260633E+04   -0.11840E-02   -0.79630E-04  1351   0.414E-02    0.398E-01
RMM:  11    -0.116951285484E+04   -0.24851E-03   -0.19314E-04  1065   0.282E-02    0.482E-01
RMM:  12    -0.116951225864E+04    0.59620E-03   -0.18151E-04  1051   0.216E-02    0.369E-01
RMM:  13    -0.116951162714E+04    0.63150E-03   -0.11537E-03  1499   0.435E-02    0.241E-01
RMM:  14    -0.116951253897E+04   -0.91183E-03   -0.29035E-04  1098   0.292E-02    0.154E-01
RMM:  15    -0.116951250510E+04    0.33872E-04   -0.10486E-04  1003   0.197E-02
   8 F= -.11765866E+04 E0= -.11765647E+04  d E =-.177958E-01  mag=    -0.0000
       N       E                     dE             d eps       ncg     rms          rms(c)
DAV:   1    -0.116951509300E+04   -0.25540E-02   -0.27173E-01  1728   0.105E+00    0.746E-01
RMM:   2    -0.116952375105E+04   -0.86581E-02   -0.21318E-02  1672   0.185E-01    0.275E+00
RMM:   3    -0.116951123913E+04    0.12512E-01   -0.36079E-03  1540   0.117E-01    0.422E-01
RMM:   4    -0.116951557180E+04   -0.43327E-02   -0.58144E-04  1263   0.633E-02    0.216E-01
RMM:   5    -0.116951545368E+04    0.11811E-03   -0.40261E-05  1006   0.164E-02    0.153E-01
RMM:   6    -0.116951537326E+04    0.80421E-04   -0.71162E-05   989   0.120E-02
   9 F= -.11765897E+04 E0= -.11765681E+04  d E =-.208607E-01  mag=     0.0007
       N       E                     dE             d eps       ncg     rms          rms(c)
DAV:   1    -0.116951957110E+04   -0.41174E-02   -0.13708E+00  1584   0.252E+00    0.221E+00
RMM:   2    -0.116958272792E+04   -0.63157E-01   -0.17552E-01  1708   0.454E-01    0.475E+00
RMM:   3    -0.116951611925E+04    0.66609E-01   -0.22185E-02  1630   0.235E-01    0.514E-01
RMM:   4    -0.116952409943E+04   -0.79802E-02   -0.24824E-03  1397   0.783E-02    0.392E-01
RMM:   5    -0.116952467391E+04   -0.57448E-03   -0.28456E-04  1114   0.386E-02    0.304E-01
RMM:   6    -0.116952445517E+04    0.21874E-03   -0.14514E-04  1051   0.180E-02    0.187E-01
RMM:   7    -0.116952447083E+04   -0.15668E-04   -0.14890E-03  1505   0.394E-02    0.153E-01
RMM:   8    -0.116952443741E+04    0.33421E-04   -0.61920E-05  1019   0.154E-02
  10 F= -.11765982E+04 E0= -.11765756E+04  d E =-.851976E-02  mag=     0.0051
       N       E                     dE             d eps       ncg     rms          rms(c)
DAV:   1    -0.116952389451E+04    0.57632E-03   -0.14929E-01  1656   0.842E-01    0.594E-01
RMM:   2    -0.116953016260E+04   -0.62681E-02   -0.16273E-02  1709   0.138E-01    0.198E+00
RMM:   3    -0.116952283954E+04    0.73231E-02   -0.20758E-03  1371   0.830E-02    0.231E-01
RMM:   4    -0.116952501857E+04   -0.21790E-02   -0.28009E-04  1101   0.400E-02    0.243E-01
RMM:   5    -0.116952489546E+04    0.12311E-03   -0.30405E-05  1000   0.149E-02    0.157E-01
RMM:   6    -0.116952501092E+04   -0.11546E-03   -0.10941E-05   937   0.814E-03    0.154E-01
RMM:   7    -0.116952488983E+04    0.12108E-03   -0.63528E-06   781   0.537E-03    0.131E-01
RMM:   8    -0.116952496914E+04   -0.79311E-04   -0.10516E-04  1004   0.119E-02
  11 F= -.11765986E+04 E0= -.11765753E+04  d E =-.887042E-02  mag=     0.0213
       N       E                     dE             d eps       ncg     rms          rms(c)
DAV:   1    -0.116952585794E+04   -0.96811E-03   -0.78462E-01  1584   0.169E+00    0.262E-01
RMM:   2    -0.116953013710E+04   -0.42792E-02   -0.44920E-02  1724   0.248E-01    0.222E-01
RMM:   3    -0.116953009662E+04    0.40475E-04   -0.16546E-03  1325   0.540E-02    0.298E-01
RMM:   4    -0.116952996355E+04    0.13307E-03   -0.26052E-04  1088   0.188E-02    0.277E-01
RMM:   5    -0.116952983665E+04    0.12690E-03   -0.28932E-05  1011   0.978E-03    0.241E-01
RMM:   6    -0.116952998113E+04   -0.14448E-03   -0.13205E-05   952   0.727E-03    0.263E-01
RMM:   7    -0.116952982024E+04    0.16089E-03   -0.20335E-05   980   0.921E-03    0.251E-01
RMM:   8    -0.116952976824E+04    0.51999E-04   -0.46824E-05   990   0.872E-03
  12 F= -.11766028E+04 E0= -.11765795E+04  d E =-.423346E-02  mag=     0.0316
       N       E                     dE             d eps       ncg     rms          rms(c)
DAV:   1    -0.116952961344E+04    0.20680E-03   -0.98319E-02  1584   0.605E-01    0.245E-01
RMM:   2    -0.116953027082E+04   -0.65738E-03   -0.52847E-03  1619   0.827E-02    0.378E-01
RMM:   3    -0.116952965116E+04    0.61965E-03   -0.22363E-04  1059   0.250E-02    0.260E-01
RMM:   4    -0.116952979526E+04   -0.14410E-03   -0.42126E-05   993   0.120E-02    0.259E-01
RMM:   5    -0.116952978142E+04    0.13839E-04   -0.10847E-05   924   0.797E-03
  13 F= -.11766026E+04 E0= -.11765797E+04  d E =-.404306E-02  mag=     0.0265
       N       E                     dE             d eps       ncg     rms          rms(c)
DAV:   1    -0.116953000475E+04   -0.20949E-03   -0.67723E-01  1584   0.142E+00    0.368E-01
RMM:   2    -0.116953331578E+04   -0.33110E-02   -0.31302E-02  1740   0.212E-01    0.652E-01
RMM:   3    -0.116953242497E+04    0.89081E-03   -0.12778E-03  1266   0.559E-02    0.510E-01
RMM:   4    -0.116953249707E+04   -0.72105E-04   -0.25669E-04  1098   0.215E-02
  14 F= -.11766047E+04 E0= -.11765808E+04  d E =-.207239E-02  mag=     0.0397
       N       E                     dE             d eps       ncg     rms          rms(c)
DAV:   1    -0.116953236074E+04    0.64223E-04   -0.38693E-01  1584   0.108E+00    0.505E-01
RMM:   2    -0.116953427819E+04   -0.19175E-02   -0.18053E-02  1735   0.165E-01    0.793E-01
RMM:   3    -0.116953317741E+04    0.11008E-02   -0.10340E-03  1241   0.485E-02    0.860E-01
RMM:   4    -0.116953263740E+04    0.54001E-03   -0.26270E-04  1100   0.323E-02    0.722E-01
RMM:   5    -0.116953326122E+04   -0.62381E-03   -0.71189E-05  1014   0.218E-02    0.698E-01
RMM:   6    -0.116953302648E+04    0.23473E-03   -0.25799E-05   989   0.100E-02    0.669E-01
RMM:   7    -0.116953286770E+04    0.15879E-03   -0.31481E-05   984   0.118E-02    0.627E-01
RMM:   8    -0.116953262364E+04    0.24405E-03   -0.35686E-03  1575   0.636E-02    0.652E-01
RMM:   9    -0.116953265326E+04   -0.29620E-04   -0.18281E-04  1092   0.250E-02
  15 F= -.11766043E+04 E0= -.11765803E+04  d E =-.174630E-02  mag=     0.0325
       N       E                     dE             d eps       ncg     rms          rms(c)
DAV:   1    -0.116952934227E+04    0.32814E-02   -0.72552E-01  1584   0.206E+00    0.192E+00
RMM:   2    -0.116957792907E+04   -0.48587E-01   -0.96453E-02  1658   0.388E-01    0.458E+00
RMM:   3    -0.116952368612E+04    0.54243E-01   -0.18195E-02  1636   0.220E-01    0.534E-01
RMM:   4    -0.116953238576E+04   -0.86996E-02   -0.15960E-03  1380   0.800E-02    0.716E-01
RMM:   5    -0.116953168566E+04    0.70011E-03   -0.25650E-04  1102   0.331E-02    0.310E-01
RMM:   6    -0.116953257381E+04   -0.88815E-03   -0.10951E-04  1031   0.234E-02    0.309E-01
RMM:   7    -0.116953199829E+04    0.57552E-03   -0.85360E-05  1011   0.159E-02    0.265E-01
RMM:   8    -0.116953128191E+04    0.71638E-03   -0.11835E-03  1541   0.393E-02    0.466E-01
RMM:   9    -0.116953161930E+04   -0.33739E-03   -0.54446E-04  1381   0.353E-02    0.254E-01
RMM:  10    -0.116953157360E+04    0.45695E-04   -0.18314E-04  1064   0.204E-02
  16 F= -.11766032E+04 E0= -.11765804E+04  d E =0.115277E-02  mag=     0.0087
       N       E                     dE             d eps       ncg     rms          rms(c)
DAV:   1    -0.116953332297E+04   -0.17037E-02   -0.25954E-01  1584   0.122E+00    0.905E-01
RMM:   2    -0.116954787942E+04   -0.14556E-01   -0.28078E-02  1678   0.212E-01    0.372E+00
RMM:   3    -0.116952741519E+04    0.20464E-01   -0.54323E-03  1571   0.144E-01    0.115E+00
RMM:   4    -0.116953144278E+04   -0.40276E-02   -0.11604E-03  1357   0.850E-02    0.392E-01
RMM:   5    -0.116953409648E+04   -0.26537E-02   -0.30337E-04  1133   0.431E-02    0.212E-01
RMM:   6    -0.116953431722E+04   -0.22074E-03   -0.10154E-03  1515   0.386E-02    0.161E-01
RMM:   7    -0.116953429937E+04    0.17847E-04   -0.64413E-05   997   0.175E-02
  17 F= -.11766060E+04 E0= -.11765828E+04  d E =-.161439E-02  mag=     0.0177
       N       E                     dE             d eps       ncg     rms          rms(c)
DAV:   1    -0.116952373894E+04    0.10578E-01   -0.33185E-01  1944   0.247E+00    0.872E-01
RMM:   2    -0.116954968355E+04   -0.25945E-01   -0.18187E-01  1737   0.329E-01    0.307E+00
RMM:   3    -0.116953093000E+04    0.18754E-01   -0.88085E-03  1522   0.143E-01    0.597E-01
RMM:   4    -0.116953614357E+04   -0.52136E-02   -0.14651E-03  1304   0.782E-02    0.518E-01
RMM:   5    -0.116953540916E+04    0.73441E-03   -0.10078E-04  1016   0.251E-02    0.215E-01
RMM:   6    -0.116953588599E+04   -0.47684E-03   -0.49842E-05   986   0.145E-02    0.180E-01
RMM:   7    -0.116953565996E+04    0.22603E-03   -0.50696E-05   984   0.120E-02    0.182E-01
RMM:   8    -0.116953560715E+04    0.52812E-04   -0.31718E-04  1137   0.216E-02
  18 F= -.11766073E+04 E0= -.11765846E+04  d E =-.131196E-02  mag=     0.0030
       N       E                     dE             d eps       ncg     rms          rms(c)
DAV:   1    -0.116952963971E+04    0.60203E-02   -0.17136E-01  1836   0.178E+00    0.545E-01
RMM:   2    -0.116954202140E+04   -0.12382E-01   -0.94947E-02  1738   0.233E-01    0.189E+00
RMM:   3    -0.116953376529E+04    0.82561E-02   -0.39344E-03  1369   0.932E-02    0.409E-01
RMM:   4    -0.116953588770E+04   -0.21224E-02   -0.62163E-04  1115   0.466E-02    0.530E-01
RMM:   5    -0.116953500387E+04    0.88383E-03   -0.66615E-05  1000   0.194E-02    0.120E-01
RMM:   6    -0.116953585968E+04   -0.85581E-03   -0.47508E-05   992   0.169E-02    0.109E-01
RMM:   7    -0.116953592344E+04   -0.63760E-04   -0.11012E-05   941   0.940E-03
  19 F= -.11766076E+04 E0= -.11765852E+04  d E =-.163431E-02  mag=     0.0052
       N       E                     dE             d eps       ncg     rms          rms(c)
DAV:   1    -0.116953243642E+04    0.34233E-02   -0.11735E-01  1836   0.149E+00    0.655E-01
RMM:   2    -0.116954485766E+04   -0.12421E-01   -0.71703E-02  1683   0.203E-01    0.248E+00
RMM:   3    -0.116953324983E+04    0.11608E-01   -0.44802E-03  1421   0.109E-01    0.367E-01
RMM:   4    -0.116953681800E+04   -0.35682E-02   -0.71498E-04  1203   0.584E-02    0.347E-01
RMM:   5    -0.116953647792E+04    0.34008E-03   -0.52202E-05   986   0.186E-02    0.158E-01
RMM:   6    -0.116953674858E+04   -0.27066E-03   -0.24644E-05   955   0.105E-02    0.142E-01
RMM:   7    -0.116953671011E+04    0.38472E-04   -0.70162E-06   833   0.638E-03
  20 F= -.11766083E+04 E0= -.11765864E+04  d E =-.747909E-03  mag=     0.0122
       N       E                     dE             d eps       ncg     rms          rms(c)
DAV:   1    -0.116949689583E+04    0.39853E-01   -0.10534E+00  1908   0.446E+00    0.163E+00
RMM:   2    -0.116958747796E+04   -0.90582E-01   -0.65106E-01  1745   0.598E-01    0.557E+00
RMM:   3    -0.116952253351E+04    0.64944E-01   -0.30104E-02  1621   0.266E-01    0.109E+00
RMM:   4    -0.116953861169E+04   -0.16078E-01   -0.51230E-03  1482   0.144E-01    0.120E+00
RMM:   5    -0.116953514622E+04    0.34655E-02   -0.39529E-04  1137   0.462E-02    0.429E-01
RMM:   6    -0.116953723227E+04   -0.20860E-02   -0.23731E-04  1070   0.340E-02    0.297E-01
RMM:   7    -0.116953802130E+04   -0.78903E-03   -0.54576E-04  1261   0.356E-02    0.320E-01
RMM:   8    -0.116953767909E+04    0.34221E-03   -0.62476E-04  1273   0.331E-02    0.736E-01
RMM:   9    -0.116953683331E+04    0.84578E-03   -0.17642E-04  1054   0.327E-02    0.327E-01
RMM:  10    -0.116953766405E+04   -0.83074E-03   -0.11642E-04  1015   0.203E-02    0.309E-01
RMM:  11    -0.116953790233E+04   -0.23828E-03   -0.65918E-05   993   0.192E-02    0.339E-01
RMM:  12    -0.116953800599E+04   -0.10365E-03   -0.17257E-04  1015   0.155E-02    0.249E-01
RMM:  13    -0.116953815169E+04   -0.14570E-03   -0.65273E-05   991   0.137E-02    0.979E-02
RMM:  14    -0.116953818179E+04   -0.30100E-04   -0.26680E-05   970   0.981E-03
  21 F= -.11766097E+04 E0= -.11765883E+04  d E =-.211009E-02  mag=    -0.0006
       N       E                     dE             d eps       ncg     rms          rms(c)
DAV:   1    -0.116953742302E+04    0.72867E-03   -0.86516E-02  1908   0.109E+00    0.362E-01
RMM:   2    -0.116954215795E+04   -0.47349E-02   -0.32092E-02  1713   0.156E-01    0.131E+00
RMM:   3    -0.116953843911E+04    0.37188E-02   -0.15401E-03  1233   0.640E-02    0.194E-01
RMM:   4    -0.116953957566E+04   -0.11366E-02   -0.24720E-04  1040   0.310E-02    0.282E-01
RMM:   5    -0.116953926389E+04    0.31178E-03   -0.32756E-05   974   0.144E-02    0.688E-02
RMM:   6    -0.116953952824E+04   -0.26435E-03   -0.41261E-05   981   0.114E-02    0.497E-02
RMM:   7    -0.116953958797E+04   -0.59726E-04   -0.92629E-05   991   0.121E-02
  22 F= -.11766110E+04 E0= -.11765897E+04  d E =-.127236E-02  mag=    -0.0049
       N       E                     dE             d eps       ncg     rms          rms(c)
DAV:   1    -0.116953520914E+04    0.43191E-02   -0.20075E-01  1728   0.166E+00    0.512E-01
RMM:   2    -0.116954557970E+04   -0.10371E-01   -0.72754E-02  1728   0.238E-01    0.188E+00
RMM:   3    -0.116953807739E+04    0.75023E-02   -0.32409E-03  1395   0.935E-02    0.218E-01
RMM:   4    -0.116954027052E+04   -0.21931E-02   -0.55707E-04  1118   0.448E-02    0.212E-01
RMM:   5    -0.116954014309E+04    0.12744E-03   -0.35562E-05   995   0.152E-02    0.135E-01
RMM:   6    -0.116954022735E+04   -0.84264E-04   -0.29848E-05   982   0.928E-03
  23 F= -.11766114E+04 E0= -.11765905E+04  d E =-.171100E-02  mag=    -0.0098
       N       E                     dE             d eps       ncg     rms          rms(c)
DAV:   1    -0.116953970453E+04    0.43856E-03   -0.83358E-02  1800   0.934E-01    0.238E-01
RMM:   2    -0.116954231858E+04   -0.26141E-02   -0.22663E-02  1683   0.135E-01    0.715E-01
RMM:   3    -0.116954106805E+04    0.12505E-02   -0.80179E-04  1114   0.416E-02    0.183E-01
RMM:   4    -0.116954129450E+04   -0.22645E-03   -0.12934E-04  1017   0.171E-02    0.209E-01
RMM:   5    -0.116954111989E+04    0.17460E-03   -0.12701E-05   911   0.789E-03    0.199E-01
RMM:   6    -0.116954111805E+04    0.18405E-05   -0.78520E-06   863   0.645E-03
  24 F= -.11766121E+04 E0= -.11765911E+04  d E =-.712044E-03  mag=    -0.0107
       N       E                     dE             d eps       ncg     rms          rms(c)
DAV:   1    -0.116952798784E+04    0.13132E-01   -0.75035E-01  1656   0.279E+00    0.630E-01
RMM:   2    -0.116955133174E+04   -0.23344E-01   -0.20386E-01  1752   0.402E-01    0.207E+00
RMM:   3    -0.116954064387E+04    0.10688E-01   -0.73800E-03  1533   0.125E-01    0.320E-01
RMM:   4    -0.116954261258E+04   -0.19687E-02   -0.12037E-03  1207   0.525E-02    0.339E-01
RMM:   5    -0.116954254263E+04    0.69957E-04   -0.14603E-04  1055   0.184E-02
  25 F= -.11766130E+04 E0= -.11765922E+04  d E =-.160829E-02  mag=    -0.0308
       N       E                     dE             d eps       ncg     rms          rms(c)
DAV:   1    -0.116954251679E+04    0.95797E-04   -0.24382E-02  1656   0.440E-01    0.324E-01
RMM:   2    -0.116954352728E+04   -0.10105E-02   -0.44254E-03  1384   0.686E-02    0.587E-01
RMM:   3    -0.116954276472E+04    0.76255E-03   -0.33202E-04  1069   0.299E-02    0.520E-01
RMM:   4    -0.116954218435E+04    0.58038E-03   -0.97599E-05  1020   0.206E-02    0.383E-01
RMM:   5    -0.116954247357E+04   -0.28923E-03   -0.57522E-05   990   0.183E-02    0.381E-01
RMM:   6    -0.116954245004E+04    0.23534E-04   -0.20285E-05   918   0.869E-03
  26 F= -.11766128E+04 E0= -.11765916E+04  d E =0.229293E-03  mag=    -0.0489
       N       E                     dE             d eps       ncg     rms          rms(c)
DAV:   1    -0.116954082614E+04    0.16474E-02   -0.22879E-01  1584   0.131E+00    0.317E-01
RMM:   2    -0.116954466335E+04   -0.38372E-02   -0.37988E-02  1780   0.192E-01    0.424E-01
RMM:   3    -0.116954400726E+04    0.65609E-03   -0.13479E-03  1142   0.447E-02    0.581E-01
RMM:   4    -0.116954323186E+04    0.77540E-03   -0.29712E-04  1070   0.241E-02    0.540E-01
RMM:   5    -0.116954381538E+04   -0.58352E-03   -0.72433E-05  1006   0.192E-02    0.390E-01
RMM:   6    -0.116954381306E+04    0.23242E-05   -0.34254E-05   978   0.160E-02
  27 F= -.11766138E+04 E0= -.11765927E+04  d E =-.726266E-03  mag=    -0.0456
