       N       E                     dE             d eps       ncg     rms          rms(c)
DAV:   1     0.478521979703E+04    0.47852E+04   -0.18132E+05  1888   0.960E+02
DAV:   2    -0.551711790211E+02   -0.48404E+04   -0.44389E+04  2464   0.215E+02
DAV:   3    -0.120252960447E+04   -0.11474E+04   -0.11396E+04  1984   0.112E+02
DAV:   4    -0.125162379762E+04   -0.49094E+02   -0.48745E+02  1920   0.305E+01
DAV:   5    -0.125283152379E+04   -0.12077E+01   -0.12043E+01  2336   0.443E+00    0.770E+01
RMM:   6    -0.123602902066E+04    0.16803E+02   -0.50250E+01  1656   0.790E+00    0.641E+01
RMM:   7    -0.122306259901E+04    0.12966E+02   -0.83729E+00  1553   0.402E+00    0.472E+01
RMM:   8    -0.120179189875E+04    0.21271E+02   -0.21489E+01  1587   0.600E+00    0.325E+01
RMM:   9    -0.118445356883E+04    0.17338E+02   -0.28948E+01  1572   0.700E+00    0.218E+01
RMM:  10    -0.118059728720E+04    0.38563E+01   -0.18854E+01  1536   0.582E+00    0.130E+01
RMM:  11    -0.118169523207E+04   -0.10979E+01   -0.41593E+00  1563   0.303E+00    0.760E+00
RMM:  12    -0.118171567777E+04   -0.20446E-01   -0.57546E-01  1816   0.120E+00    0.549E+00
RMM:  13    -0.118118565327E+04    0.53002E+00   -0.12919E+00  1536   0.142E+00    0.162E+00
RMM:  14    -0.118120183207E+04   -0.16179E-01   -0.22183E-01  1539   0.706E-01    0.921E-01
RMM:  15    -0.118120273912E+04   -0.90705E-03   -0.21068E-02  1542   0.248E-01    0.427E-01
RMM:  16    -0.118120303210E+04   -0.29297E-03   -0.18428E-02  1541   0.189E-01    0.264E-01
RMM:  17    -0.118120245609E+04    0.57600E-03   -0.41126E-03  1579   0.954E-02    0.152E-01
RMM:  18    -0.118120250137E+04   -0.45277E-04   -0.22860E-03  1583   0.661E-02    0.110E-01
RMM:  19    -0.118120259770E+04   -0.96330E-04   -0.70483E-04  1545   0.379E-02    0.733E-02
RMM:  20    -0.118120262598E+04   -0.28284E-04   -0.19343E-04  1562   0.212E-02    0.529E-02
RMM:  21    -0.118120264720E+04   -0.21213E-04   -0.64031E-05  1729   0.116E-02    0.408E-02
RMM:  22    -0.118120264663E+04    0.56492E-06   -0.16595E-05  1551   0.578E-03    0.288E-02
RMM:  23    -0.118120264639E+04    0.23784E-06   -0.35065E-05  1536   0.798E-03    0.768E-03
RMM:  24    -0.118120264688E+04   -0.49069E-06   -0.58056E-06  1440   0.361E-03
   1 F= -.11883307E+04 E0= -.11883307E+04  d E =-.118833E+04  mag=     2.0001
       N       E                     dE             d eps       ncg     rms          rms(c)
DAV:   1    -0.118120007434E+04    0.25721E-02   -0.37651E-01  1600   0.117E+00    0.176E-01
RMM:   2    -0.118120135274E+04   -0.12784E-02   -0.14864E-02  1701   0.186E-01    0.147E-01
RMM:   3    -0.118120161248E+04   -0.25974E-03   -0.35946E-03  1829   0.785E-02    0.117E-01
RMM:   4    -0.118120158817E+04    0.24308E-04   -0.51365E-04  1955   0.309E-02    0.964E-02
RMM:   5    -0.118120156163E+04    0.26542E-04   -0.19808E-04  1629   0.191E-02    0.634E-02
RMM:   6    -0.118120159212E+04   -0.30486E-04   -0.22992E-04  1587   0.193E-02    0.376E-02
RMM:   7    -0.118120160231E+04   -0.10194E-04   -0.30544E-05  1614   0.937E-03    0.193E-02
RMM:   8    -0.118120160698E+04   -0.46690E-05   -0.15795E-05  1567   0.566E-03    0.110E-02
RMM:   9    -0.118120160541E+04    0.15699E-05   -0.76413E-06  1529   0.375E-03    0.589E-03
RMM:  10    -0.118120160603E+04   -0.62144E-06   -0.60958E-06  1490   0.315E-03
   2 F= -.11883303E+04 E0= -.11883303E+04  d E =0.429844E-03  mag=     2.0000
       N       E                     dE             d eps       ncg     rms          rms(c)
DAV:   1    -0.118120256606E+04   -0.96065E-03   -0.12265E-01  1792   0.666E-01    0.101E-01
RMM:   2    -0.118120290614E+04   -0.34007E-03   -0.41616E-03  1675   0.103E-01    0.837E-02
RMM:   3    -0.118120296741E+04   -0.61278E-04   -0.95941E-04  1725   0.420E-02    0.652E-02
RMM:   4    -0.118120296086E+04    0.65542E-05   -0.15002E-04  1807   0.172E-02    0.533E-02
RMM:   5    -0.118120295439E+04    0.64709E-05   -0.66989E-05  1624   0.112E-02    0.344E-02
RMM:   6    -0.118120296228E+04   -0.78961E-05   -0.64583E-05  1557   0.105E-02    0.205E-02
RMM:   7    -0.118120296495E+04   -0.26676E-05   -0.89281E-06  1559   0.518E-03    0.100E-02
RMM:   8    -0.118120296571E+04   -0.75754E-06   -0.45465E-06  1431   0.310E-03
   3 F= -.11883313E+04 E0= -.11883313E+04  d E =-.581601E-03  mag=     2.0000
       N       E                     dE             d eps       ncg     rms          rms(c)
DAV:   1    -0.118120257997E+04    0.38498E-03   -0.22685E-01  1760   0.816E-01    0.140E-01
RMM:   2    -0.118120309111E+04   -0.51114E-03   -0.66672E-03  1690   0.118E-01    0.116E-01
RMM:   3    -0.118120321433E+04   -0.12323E-03   -0.15298E-03  1736   0.490E-02    0.879E-02
RMM:   4    -0.118120323508E+04   -0.20742E-04   -0.20336E-04  1794   0.193E-02    0.717E-02
RMM:   5    -0.118120325510E+04   -0.20029E-04   -0.64474E-05  1607   0.113E-02    0.462E-02
RMM:   6    -0.118120328925E+04   -0.34145E-04   -0.69261E-05  1552   0.112E-02    0.229E-02
RMM:   7    -0.118120330125E+04   -0.11999E-04   -0.13389E-05  1603   0.574E-03    0.107E-02
RMM:   8    -0.118120330281E+04   -0.15623E-05   -0.35711E-06  1136   0.272E-03    0.781E-03
RMM:   9    -0.118120330293E+04   -0.12280E-06   -0.32495E-06  1222   0.237E-03
   4 F= -.11883321E+04 E0= -.11883321E+04  d E =-.828096E-03  mag=     2.0000
       N       E                     dE             d eps       ncg     rms          rms(c)
DAV:   1    -0.118120317242E+04    0.13039E-03   -0.15424E-02  1600   0.213E-01    0.368E-02
RMM:   2    -0.118120320557E+04   -0.33155E-04   -0.45194E-04  1690   0.309E-02    0.308E-02
RMM:   3    -0.118120321434E+04   -0.87704E-05   -0.10400E-04  1729   0.128E-02    0.233E-02
RMM:   4    -0.118120321688E+04   -0.25390E-05   -0.13909E-05  1529   0.510E-03    0.190E-02
RMM:   5    -0.118120321947E+04   -0.25864E-05   -0.49450E-06  1287   0.308E-03    0.123E-02
RMM:   6    -0.118120322272E+04   -0.32529E-05   -0.44669E-06  1307   0.287E-03    0.635E-03
RMM:   7    -0.118120322388E+04   -0.11611E-05   -0.91786E-07  1023   0.153E-03    0.284E-03
RMM:   8    -0.118120322403E+04   -0.15068E-06   -0.23881E-07   996   0.785E-04
   5 F= -.11883322E+04 E0= -.11883322E+04  d E =-.877109E-03  mag=     2.0000
       N       E                     dE             d eps       ncg     rms          rms(c)
DAV:   1    -0.118120329871E+04   -0.74830E-04   -0.14938E-01  1664   0.604E-01    0.106E-01
RMM:   2    -0.118120352696E+04   -0.22825E-03   -0.33383E-03  1674   0.843E-02    0.907E-02
RMM:   3    -0.118120357261E+04   -0.45646E-04   -0.67524E-04  1712   0.352E-02    0.713E-02
RMM:   4    -0.118120359183E+04   -0.19224E-04   -0.12132E-04  1786   0.146E-02    0.562E-02
RMM:   5    -0.118120361665E+04   -0.24823E-04   -0.49300E-05  1572   0.963E-03    0.317E-02
RMM:   6    -0.118120363826E+04   -0.21609E-04   -0.33833E-05  1550   0.783E-03    0.168E-02
RMM:   7    -0.118120364323E+04   -0.49681E-05   -0.57092E-06  1386   0.375E-03    0.804E-03
RMM:   8    -0.118120364386E+04   -0.63061E-06   -0.26515E-06  1103   0.216E-03
   6 F= -.11883328E+04 E0= -.11883328E+04  d E =-.686541E-03  mag=     2.0000
       N       E                     dE             d eps       ncg     rms          rms(c)
DAV:   1    -0.118120327167E+04    0.37156E-03   -0.14969E-01  1664   0.604E-01    0.107E-01
RMM:   2    -0.118120350010E+04   -0.22843E-03   -0.33571E-03  1675   0.846E-02    0.910E-02
RMM:   3    -0.118120354740E+04   -0.47302E-04   -0.68666E-04  1720   0.353E-02    0.717E-02
RMM:   4    -0.118120356705E+04   -0.19653E-04   -0.11399E-04  1786   0.144E-02    0.567E-02
RMM:   5    -0.118120359439E+04   -0.27335E-04   -0.51708E-05  1575   0.980E-03    0.317E-02
RMM:   6    -0.118120361665E+04   -0.22261E-04   -0.33836E-05  1551   0.783E-03    0.170E-02
RMM:   7    -0.118120362127E+04   -0.46172E-05   -0.56298E-06  1391   0.372E-03    0.813E-03
RMM:   8    -0.118120362196E+04   -0.69640E-06   -0.28864E-06  1133   0.223E-03
   7 F= -.11883331E+04 E0= -.11883331E+04  d E =-.932486E-03  mag=     2.0000
       N       E                     dE             d eps       ncg     rms          rms(c)
DAV:   1    -0.118120379929E+04   -0.17802E-03   -0.91753E-02  1664   0.441E-01    0.821E-02
RMM:   2    -0.118120390564E+04   -0.10636E-03   -0.17590E-03  1647   0.588E-02    0.689E-02
RMM:   3    -0.118120392425E+04   -0.18605E-04   -0.31153E-04  1699   0.244E-02    0.549E-02
RMM:   4    -0.118120394172E+04   -0.17476E-04   -0.57497E-05  1736   0.104E-02    0.410E-02
RMM:   5    -0.118120396368E+04   -0.21954E-04   -0.26990E-05  1572   0.723E-03    0.206E-02
RMM:   6    -0.118120397487E+04   -0.11195E-04   -0.12180E-05  1533   0.490E-03    0.109E-02
RMM:   7    -0.118120397701E+04   -0.21413E-05   -0.25791E-06  1079   0.240E-03    0.551E-03
RMM:   8    -0.118120397720E+04   -0.18709E-06   -0.97110E-07  1026   0.138E-03
   8 F= -.11883336E+04 E0= -.11883336E+04  d E =-.532063E-03  mag=     2.0000
       N       E                     dE             d eps       ncg     rms          rms(c)
DAV:   1    -0.118120376077E+04    0.21624E-03   -0.24965E-01  1600   0.727E-01    0.135E-01
RMM:   2    -0.118120406437E+04   -0.30360E-03   -0.47900E-03  1647   0.971E-02    0.113E-01
RMM:   3    -0.118120411524E+04   -0.50864E-04   -0.84724E-04  1699   0.402E-02    0.904E-02
RMM:   4    -0.118120415156E+04   -0.36321E-04   -0.15620E-04  1747   0.172E-02    0.674E-02
RMM:   5    -0.118120420385E+04   -0.52295E-04   -0.74892E-05  1582   0.120E-02    0.340E-02
RMM:   6    -0.118120423244E+04   -0.28586E-04   -0.33787E-05  1561   0.814E-03    0.181E-02
RMM:   7    -0.118120423781E+04   -0.53708E-05   -0.70214E-06  1383   0.398E-03    0.926E-03
RMM:   8    -0.118120423843E+04   -0.61948E-06   -0.29651E-06  1146   0.228E-03
   9 F= -.11883342E+04 E0= -.11883342E+04  d E =-.108609E-02  mag=     2.0000
