       N       E                     dE             d eps       ncg     rms          rms(c)
DAV:   1     0.462447459155E+04    0.46245E+04   -0.17998E+05  1944   0.925E+02
DAV:   2    -0.131265744999E+03   -0.47557E+04   -0.43687E+04  2592   0.209E+02
DAV:   3    -0.120492258324E+04   -0.10737E+04   -0.10686E+04  2088   0.106E+02
DAV:   4    -0.124870818734E+04   -0.43786E+02   -0.43524E+02  2124   0.289E+01
DAV:   5    -0.124988100194E+04   -0.11728E+01   -0.11688E+01  2232   0.419E+00    0.641E+01
RMM:   6    -0.123547274752E+04    0.14408E+02   -0.83927E+00  1642   0.338E+00    0.522E+01
RMM:   7    -0.119523854233E+04    0.40234E+02   -0.91591E+01  1667   0.109E+01    0.328E+01
RMM:   8    -0.119111450690E+04    0.41240E+01   -0.43837E+00  1738   0.302E+00    0.267E+01
RMM:   9    -0.118369616492E+04    0.74183E+01   -0.30735E+01  1603   0.636E+00    0.148E+01
RMM:  10    -0.118529336215E+04   -0.15972E+01   -0.89986E+00  1620   0.371E+00    0.114E+01
RMM:  11    -0.118270882223E+04    0.25845E+01   -0.28017E+00  1687   0.213E+00    0.471E+00
RMM:  12    -0.118245977231E+04    0.24905E+00   -0.89388E-01  1692   0.108E+00    0.351E+00
RMM:  13    -0.118238278581E+04    0.76986E-01   -0.16485E-01  1694   0.527E-01    0.222E+00
RMM:  14    -0.118236811702E+04    0.14669E-01   -0.12513E-01  1624   0.440E-01    0.188E+00
RMM:  15    -0.118235759252E+04    0.10524E-01   -0.42110E-02  1786   0.254E-01    0.614E-01
RMM:  16    -0.118235878509E+04   -0.11926E-02   -0.47414E-03  1796   0.941E-02    0.417E-01
RMM:  17    -0.118235762094E+04    0.11642E-02   -0.60899E-03  1661   0.822E-02    0.278E-01
RMM:  18    -0.118235825868E+04   -0.63774E-03   -0.80188E-04  1414   0.419E-02    0.148E-01
RMM:  19    -0.118235866877E+04   -0.41009E-03   -0.19289E-03  1607   0.517E-02    0.986E-02
RMM:  20    -0.118235874952E+04   -0.80749E-04   -0.53633E-04  1317   0.325E-02
   1 F= -.11894985E+04 E0= -.11894932E+04  d E =-.118950E+04  mag=    -0.8288
       N       E                     dE             d eps       ncg     rms          rms(c)
DAV:   1    -0.118235303569E+04    0.56331E-02   -0.13568E+00  1728   0.175E+00    0.362E-01
RMM:   2    -0.118235823459E+04   -0.51989E-02   -0.64507E-02  1744   0.309E-01    0.394E-01
RMM:   3    -0.118235779086E+04    0.44374E-03   -0.34762E-03  1585   0.869E-02    0.458E-01
RMM:   4    -0.118235776658E+04    0.24273E-04   -0.68294E-04  1224   0.283E-02
   2 F= -.11894985E+04 E0= -.11894933E+04  d E =-.245979E-04  mag=    -0.8364
       N       E                     dE             d eps       ncg     rms          rms(c)
DAV:   1    -0.118235841436E+04   -0.62351E-03   -0.37579E-01  1728   0.924E-01    0.554E-01
RMM:   2    -0.118236018982E+04   -0.17755E-02   -0.16637E-02  1674   0.155E-01    0.404E-01
RMM:   3    -0.118236016499E+04    0.24831E-04   -0.15808E-03  1337   0.572E-02    0.177E-01
RMM:   4    -0.118236016479E+04    0.20612E-06   -0.37094E-04  1167   0.239E-02
   3 F= -.11895004E+04 E0= -.11894954E+04  d E =-.188890E-02  mag=    -0.8549
       N       E                     dE             d eps       ncg     rms          rms(c)
DAV:   1    -0.118235855917E+04    0.16058E-02   -0.93546E-01  1728   0.134E+00    0.300E-01
RMM:   2    -0.118236031936E+04   -0.17602E-02   -0.26655E-02  1681   0.206E-01    0.300E-01
RMM:   3    -0.118235999595E+04    0.32341E-03   -0.12417E-03  1297   0.556E-02    0.316E-01
RMM:   4    -0.118235999077E+04    0.51753E-05   -0.22569E-04  1120   0.189E-02
   4 F= -.11895011E+04 E0= -.11894962E+04  d E =-.772207E-03  mag=    -0.8517
       N       E                     dE             d eps       ncg     rms          rms(c)
DAV:   1    -0.118236070967E+04   -0.71372E-03   -0.19050E-01  1800   0.608E-01    0.180E-01
RMM:   2    -0.118236120718E+04   -0.49752E-03   -0.63246E-03  1657   0.103E-01    0.161E-01
RMM:   3    -0.118236099313E+04    0.21406E-03   -0.27418E-04  1098   0.277E-02    0.143E-01
RMM:   4    -0.118236094428E+04    0.48850E-04   -0.93961E-04  1533   0.344E-02
   5 F= -.11895017E+04 E0= -.11894968E+04  d E =-.131861E-02  mag=    -0.8528
       N       E                     dE             d eps       ncg     rms          rms(c)
DAV:   1    -0.118236079248E+04    0.20064E-03   -0.59971E-01  1800   0.109E+00    0.193E-01
RMM:   2    -0.118236189498E+04   -0.11025E-02   -0.14707E-02  1663   0.157E-01    0.149E-01
RMM:   3    -0.118236163074E+04    0.26423E-03   -0.68719E-04  1231   0.432E-02    0.125E-01
RMM:   4    -0.118236161204E+04    0.18702E-04   -0.89929E-04  1555   0.358E-02
   6 F= -.11895029E+04 E0= -.11894979E+04  d E =-.117642E-02  mag=    -0.8508
       N       E                     dE             d eps       ncg     rms          rms(c)
DAV:   1    -0.118236158673E+04    0.44012E-04   -0.45945E-03  1800   0.968E-02    0.467E-02
RMM:   2    -0.118236157986E+04    0.68655E-05   -0.12981E-04  1064   0.136E-02
   7 F= -.11895029E+04 E0= -.11894979E+04  d E =-.119047E-02  mag=    -0.8509
       N       E                     dE             d eps       ncg     rms          rms(c)
DAV:   1    -0.118236185505E+04   -0.26832E-03   -0.84849E-02  1800   0.401E-01    0.924E-02
RMM:   2    -0.118236199505E+04   -0.14000E-03   -0.24090E-03  1496   0.580E-02    0.789E-02
RMM:   3    -0.118236196910E+04    0.25950E-04   -0.10780E-04  1052   0.170E-02
   8 F= -.11895034E+04 E0= -.11894984E+04  d E =-.540832E-03  mag=    -0.8506
       N       E                     dE             d eps       ncg     rms          rms(c)
DAV:   1    -0.118236119978E+04    0.79527E-03   -0.75287E-01  1800   0.119E+00    0.234E-01
RMM:   2    -0.118236264606E+04   -0.14463E-02   -0.21479E-02  1696   0.169E-01    0.190E-01
RMM:   3    -0.118236232747E+04    0.31859E-03   -0.96755E-04  1229   0.461E-02    0.169E-01
RMM:   4    -0.118236246812E+04   -0.14065E-03   -0.44688E-04  1274   0.266E-02    0.103E-01
RMM:   5    -0.118236269298E+04   -0.22486E-03   -0.50175E-04  1401   0.290E-02    0.318E-02
RMM:   6    -0.118236267864E+04    0.14337E-04   -0.35525E-05  1014   0.121E-02
   9 F= -.11895046E+04 E0= -.11894995E+04  d E =-.170454E-02  mag=    -0.8494
       N       E                     dE             d eps       ncg     rms          rms(c)
DAV:   1    -0.118236349100E+04   -0.79802E-03   -0.34058E-02  1800   0.286E-01    0.517E-02
RMM:   2    -0.118236355150E+04   -0.60507E-04   -0.97898E-04  1425   0.444E-02
  10 F= -.11895054E+04 E0= -.11895004E+04  d E =-.821450E-03  mag=    -0.8495
       N       E                     dE             d eps       ncg     rms          rms(c)
DAV:   1    -0.118236412440E+04   -0.63340E-03   -0.11818E-01  1800   0.533E-01    0.130E-01
RMM:   2    -0.118236424608E+04   -0.12168E-03   -0.32867E-03  1639   0.816E-02    0.117E-01
RMM:   3    -0.118236408113E+04    0.16496E-03   -0.18391E-04  1087   0.236E-02    0.978E-02
RMM:   4    -0.118236397637E+04    0.10475E-03   -0.73936E-04  1545   0.322E-02    0.434E-02
RMM:   5    -0.118236397494E+04    0.14324E-05   -0.54492E-05  1008   0.154E-02
  11 F= -.11895057E+04 E0= -.11895007E+04  d E =-.115116E-02  mag=    -0.8495
       N       E                     dE             d eps       ncg     rms          rms(c)
DAV:   1    -0.118236447289E+04   -0.49651E-03   -0.29205E-02  1800   0.240E-01    0.552E-02
RMM:   2    -0.118236451424E+04   -0.41357E-04   -0.75411E-04  1185   0.343E-02
  12 F= -.11895062E+04 E0= -.11895012E+04  d E =-.462710E-03  mag=    -0.8494
       N       E                     dE             d eps       ncg     rms          rms(c)
DAV:   1    -0.118236550257E+04   -0.10297E-02   -0.26671E-01  1800   0.724E-01    0.175E-01
RMM:   2    -0.118236579868E+04   -0.29611E-03   -0.71449E-03  1652   0.103E-01    0.152E-01
RMM:   3    -0.118236552523E+04    0.27345E-03   -0.36376E-04  1117   0.296E-02    0.127E-01
RMM:   4    -0.118236544042E+04    0.84807E-04   -0.85544E-04  1570   0.345E-02
  13 F= -.11895069E+04 E0= -.11895019E+04  d E =-.116209E-02  mag=    -0.8496
       N       E                     dE             d eps       ncg     rms          rms(c)
DAV:   1    -0.118236622333E+04   -0.69810E-03   -0.37386E-02  1728   0.293E-01    0.697E-02
RMM:   2    -0.118236626003E+04   -0.36706E-04   -0.87965E-04  1411   0.458E-02
  14 F= -.11895077E+04 E0= -.11895027E+04  d E =-.786306E-03  mag=    -0.8494
       N       E                     dE             d eps       ncg     rms          rms(c)
DAV:   1    -0.118236659860E+04   -0.37527E-03   -0.47754E-02  1728   0.331E-01    0.111E-01
RMM:   2    -0.118236661804E+04   -0.19441E-04   -0.12443E-03  1488   0.545E-02    0.111E-01
RMM:   3    -0.118236659086E+04    0.27178E-04   -0.78134E-05  1011   0.167E-02
  15 F= -.11895080E+04 E0= -.11895029E+04  d E =-.108093E-02  mag=    -0.8494
