       N       E                     dE             d eps       ncg     rms          rms(c)
DAV:   1     0.617094641581E+04    0.61709E+04   -0.16476E+05  1752   0.995E+02
DAV:   2     0.708676106404E+03   -0.54623E+04   -0.49281E+04  2664   0.257E+02
DAV:   3    -0.112155473015E+04   -0.18302E+04   -0.17889E+04  2520   0.146E+02
DAV:   4    -0.124994531244E+04   -0.12839E+03   -0.12588E+03  2032   0.456E+01
DAV:   5    -0.125656271509E+04   -0.66174E+01   -0.65621E+01  2664   0.138E+01    0.807E+01
RMM:   6    -0.123839666806E+04    0.18166E+02   -0.95108E+00  2013   0.604E+00    0.601E+01
RMM:   7    -0.120318413135E+04    0.35213E+02   -0.93224E+01  2136   0.175E+01    0.312E+01
RMM:   8    -0.119376501829E+04    0.94191E+01   -0.20127E+01  2009   0.899E+00    0.261E+01
RMM:   9    -0.118583226438E+04    0.79328E+01   -0.19805E+01  1980   0.750E+00    0.190E+01
RMM:  10    -0.118605021497E+04   -0.21795E+00   -0.11286E+01  2008   0.502E+00    0.126E+01
RMM:  11    -0.118680863530E+04   -0.75842E+00   -0.23149E+00  2061   0.299E+00    0.742E+00
RMM:  12    -0.118650394322E+04    0.30469E+00   -0.50456E-01  2041   0.108E+00    0.488E+00
RMM:  13    -0.118602117497E+04    0.48277E+00   -0.11887E+00  1924   0.155E+00    0.141E+00
RMM:  14    -0.118601247838E+04    0.86966E-02   -0.18190E-01  2011   0.815E-01    0.789E-01
RMM:  15    -0.118601275842E+04   -0.28003E-03   -0.60406E-02  2051   0.399E-01    0.626E-01
RMM:  16    -0.118601100015E+04    0.17583E-02   -0.21963E-02  1850   0.280E-01    0.453E-01
RMM:  17    -0.118601053513E+04    0.46502E-03   -0.51855E-03  1196   0.348E-01
   1 F= -.11934469E+04 E0= -.11934467E+04  d E =-.119345E+04  mag=    -0.9509
       N       E                     dE             d eps       ncg     rms          rms(c)
DAV:   1    -0.118601182114E+04   -0.82099E-03   -0.30661E-02  2056   0.550E-01    0.299E-01
RMM:   2    -0.118601177862E+04    0.42528E-04   -0.91769E-04   979   0.767E-02
   2 F= -.11934481E+04 E0= -.11934479E+04  d E =-.119985E-02  mag=    -0.9765
