       N       E                     dE             d eps       ncg     rms          rms(c)
DAV:   1     0.480887530966E+04    0.48089E+04   -0.18188E+05  1888   0.963E+02
DAV:   2    -0.551531814245E+02   -0.48640E+04   -0.44668E+04  2464   0.216E+02
DAV:   3    -0.120289963763E+04   -0.11477E+04   -0.11404E+04  1952   0.113E+02
DAV:   4    -0.125216878143E+04   -0.49269E+02   -0.48932E+02  1952   0.310E+01
DAV:   5    -0.125339562516E+04   -0.12268E+01   -0.12221E+01  2240   0.449E+00    0.771E+01
RMM:   6    -0.123787667778E+04    0.15519E+02   -0.55098E+01  1683   0.836E+00    0.661E+01
RMM:   7    -0.122320462132E+04    0.14672E+02   -0.83048E+00  1562   0.401E+00    0.466E+01
RMM:   8    -0.120540333147E+04    0.17801E+02   -0.15251E+01  1558   0.511E+00    0.348E+01
RMM:   9    -0.118367855748E+04    0.21725E+02   -0.41366E+01  1664   0.815E+00    0.220E+01
RMM:  10    -0.118110041155E+04    0.25781E+01   -0.17961E+01  1536   0.573E+00    0.128E+01
RMM:  11    -0.118205757590E+04   -0.95716E+00   -0.35001E+00  1576   0.279E+00    0.771E+00
RMM:  12    -0.118193115798E+04    0.12642E+00   -0.49544E-01  1660   0.112E+00    0.440E+00
RMM:  13    -0.118155062491E+04    0.38053E+00   -0.62608E-01  1536   0.104E+00    0.259E+00
RMM:  14    -0.118155157942E+04   -0.95451E-03   -0.26820E-01  1550   0.692E-01    0.113E+00
RMM:  15    -0.118153378003E+04    0.17799E-01   -0.29295E-02  1545   0.279E-01    0.456E-01
RMM:  16    -0.118153457468E+04   -0.79465E-03   -0.24688E-02  1540   0.216E-01    0.279E-01
RMM:  17    -0.118153416504E+04    0.40964E-03   -0.56478E-03  1593   0.114E-01    0.170E-01
RMM:  18    -0.118153427925E+04   -0.11421E-03   -0.31525E-03  1578   0.780E-02    0.101E-01
RMM:  19    -0.118153428830E+04   -0.90448E-05   -0.46108E-04  1652   0.343E-02    0.736E-02
RMM:  20    -0.118153435974E+04   -0.71445E-04   -0.12181E-04  1615   0.174E-02    0.503E-02
RMM:  21    -0.118153438110E+04   -0.21355E-04   -0.62999E-05  1620   0.118E-02    0.321E-02
RMM:  22    -0.118153439209E+04   -0.10996E-04   -0.57974E-05  1564   0.109E-02    0.187E-02
RMM:  23    -0.118153439290E+04   -0.80057E-06   -0.14164E-05  1562   0.610E-03    0.957E-03
RMM:  24    -0.118153439532E+04   -0.24220E-05   -0.46140E-06  1313   0.320E-03    0.684E-03
RMM:  25    -0.118153439316E+04    0.21546E-05   -0.45857E-06  1421   0.286E-03    0.449E-03
RMM:  26    -0.118153439240E+04    0.76542E-06   -0.10131E-06  1020   0.149E-03
   1 F= -.11886588E+04 E0= -.11886588E+04  d E =-.118866E+04  mag=     2.9999
       N       E                     dE             d eps       ncg     rms          rms(c)
DAV:   1    -0.118153069088E+04    0.37023E-02   -0.43575E-01  1568   0.127E+00    0.224E-01
RMM:   2    -0.118153226167E+04   -0.15708E-02   -0.17430E-02  1668   0.201E-01    0.192E-01
RMM:   3    -0.118153256043E+04   -0.29876E-03   -0.41257E-03  1776   0.835E-02    0.150E-01
RMM:   4    -0.118153248172E+04    0.78704E-04   -0.66125E-04  1805   0.350E-02    0.114E-01
RMM:   5    -0.118153240753E+04    0.74199E-04   -0.40909E-04  1567   0.271E-02    0.607E-02
RMM:   6    -0.118153242801E+04   -0.20488E-04   -0.18552E-04  1589   0.190E-02    0.393E-02
RMM:   7    -0.118153242596E+04    0.20575E-05   -0.30943E-05  1570   0.902E-03    0.200E-02
RMM:   8    -0.118153242637E+04   -0.41266E-06   -0.28051E-05  1546   0.658E-03    0.106E-02
RMM:   9    -0.118153242530E+04    0.10723E-05   -0.78586E-06  1618   0.390E-03    0.742E-03
RMM:  10    -0.118153242471E+04    0.58181E-06   -0.43788E-06  1394   0.283E-03
   2 F= -.11886576E+04 E0= -.11886576E+04  d E =0.122928E-02  mag=     3.0000
       N       E                     dE             d eps       ncg     rms          rms(c)
DAV:   1    -0.118153398188E+04   -0.15566E-02   -0.18714E-01  1696   0.828E-01    0.147E-01
RMM:   2    -0.118153456709E+04   -0.58521E-03   -0.67991E-03  1652   0.129E-01    0.126E-01
RMM:   3    -0.118153466997E+04   -0.10289E-03   -0.15412E-03  1706   0.522E-02    0.974E-02
RMM:   4    -0.118153463849E+04    0.31486E-04   -0.26527E-04  1739   0.223E-02    0.737E-02
RMM:   5    -0.118153461142E+04    0.27071E-04   -0.17188E-04  1569   0.176E-02    0.393E-02
RMM:   6    -0.118153462450E+04   -0.13081E-04   -0.78187E-05  1571   0.124E-02    0.244E-02
RMM:   7    -0.118153462506E+04   -0.55916E-06   -0.12104E-05  1550   0.575E-03    0.130E-02
RMM:   8    -0.118153462502E+04    0.40905E-07   -0.11848E-05  1515   0.425E-03    0.663E-03
RMM:   9    -0.118153462474E+04    0.28138E-06   -0.31425E-06  1165   0.252E-03
   3 F= -.11886593E+04 E0= -.11886593E+04  d E =-.487267E-03  mag=     3.0000
       N       E                     dE             d eps       ncg     rms          rms(c)
DAV:   1    -0.118153392732E+04    0.69770E-03   -0.22857E-01  1792   0.786E-01    0.153E-01
RMM:   2    -0.118153439111E+04   -0.46379E-03   -0.58772E-03  1648   0.113E-01    0.134E-01
RMM:   3    -0.118153446989E+04   -0.78777E-04   -0.11528E-03  1695   0.447E-02    0.105E-01
RMM:   4    -0.118153446205E+04    0.78360E-05   -0.19093E-04  1690   0.189E-02    0.749E-02
RMM:   5    -0.118153446903E+04   -0.69813E-05   -0.10551E-04  1554   0.143E-02    0.394E-02
RMM:   6    -0.118153448724E+04   -0.18212E-04   -0.45805E-05  1554   0.970E-03    0.226E-02
RMM:   7    -0.118153449269E+04   -0.54492E-05   -0.93688E-06  1554   0.473E-03    0.119E-02
RMM:   8    -0.118153449264E+04    0.52532E-07   -0.43733E-06  1353   0.278E-03
   4 F= -.11886596E+04 E0= -.11886596E+04  d E =-.297879E-03  mag=     3.0000
       N       E                     dE             d eps       ncg     rms          rms(c)
DAV:   1    -0.118153464515E+04   -0.15245E-03   -0.21746E-02  1632   0.243E-01    0.470E-02
RMM:   2    -0.118153468230E+04   -0.37154E-04   -0.55355E-04  1651   0.345E-02    0.411E-02
RMM:   3    -0.118153468878E+04   -0.64784E-05   -0.10869E-04  1692   0.138E-02    0.321E-02
RMM:   4    -0.118153468978E+04   -0.10031E-05   -0.18212E-05  1624   0.590E-03    0.229E-02
RMM:   5    -0.118153469344E+04   -0.36545E-05   -0.11059E-05  1538   0.470E-03    0.119E-02
RMM:   6    -0.118153469617E+04   -0.27370E-05   -0.50092E-06  1391   0.321E-03    0.671E-03
RMM:   7    -0.118153469677E+04   -0.59556E-06   -0.92862E-07  1005   0.151E-03
   5 F= -.11886596E+04 E0= -.11886596E+04  d E =-.368845E-03  mag=     3.0000
       N       E                     dE             d eps       ncg     rms          rms(c)
DAV:   1    -0.118153436849E+04    0.32769E-03   -0.12934E-01  1664   0.622E-01    0.109E-01
RMM:   2    -0.118153468104E+04   -0.31255E-03   -0.40864E-03  1693   0.883E-02    0.889E-02
RMM:   3    -0.118153477619E+04   -0.95150E-04   -0.94575E-04  1698   0.363E-02    0.657E-02
RMM:   4    -0.118153479807E+04   -0.21874E-04   -0.14786E-04  1862   0.146E-02    0.526E-02
RMM:   5    -0.118153481131E+04   -0.13242E-04   -0.36698E-05  1574   0.862E-03    0.310E-02
RMM:   6    -0.118153482652E+04   -0.15217E-04   -0.30948E-05  1557   0.765E-03    0.166E-02
RMM:   7    -0.118153483731E+04   -0.10782E-04   -0.57513E-06  1420   0.383E-03    0.785E-03
RMM:   8    -0.118153483833E+04   -0.10262E-05   -0.17617E-06  1040   0.193E-03    0.511E-03
RMM:   9    -0.118153483804E+04    0.29577E-06   -0.82555E-07  1001   0.128E-03
   6 F= -.11886600E+04 E0= -.11886600E+04  d E =-.390956E-03  mag=     3.0000
       N       E                     dE             d eps       ncg     rms          rms(c)
DAV:   1    -0.118153474735E+04    0.90985E-04   -0.11425E-02  1664   0.185E-01    0.327E-02
RMM:   2    -0.118153477085E+04   -0.23505E-04   -0.36347E-04  1695   0.265E-02    0.270E-02
RMM:   3    -0.118153477963E+04   -0.87741E-05   -0.84215E-05  1701   0.109E-02    0.201E-02
RMM:   4    -0.118153478285E+04   -0.32247E-05   -0.13257E-05  1426   0.442E-03    0.161E-02
RMM:   5    -0.118153478597E+04   -0.31185E-05   -0.36342E-06  1219   0.278E-03    0.941E-03
RMM:   6    -0.118153478793E+04   -0.19641E-05   -0.26637E-06  1090   0.230E-03    0.524E-03
RMM:   7    -0.118153478899E+04   -0.10605E-05   -0.60769E-07  1001   0.126E-03    0.240E-03
RMM:   8    -0.118153478904E+04   -0.45926E-07   -0.16735E-07   979   0.666E-04
   7 F= -.11886601E+04 E0= -.11886601E+04  d E =-.416174E-03  mag=     3.0000
       N       E                     dE             d eps       ncg     rms          rms(c)
DAV:   1    -0.118153397643E+04    0.81256E-03   -0.90996E-02  1824   0.669E-01    0.134E-01
RMM:   2    -0.118153458315E+04   -0.60672E-03   -0.67206E-03  1721   0.955E-02    0.905E-02
RMM:   3    -0.118153484623E+04   -0.26307E-03   -0.19366E-03  1771   0.392E-02    0.522E-02
RMM:   4    -0.118153487060E+04   -0.24371E-04   -0.17450E-04  1899   0.140E-02    0.441E-02
RMM:   5    -0.118153488675E+04   -0.16150E-04   -0.23440E-05  1606   0.602E-03    0.300E-02
RMM:   6    -0.118153490690E+04   -0.20151E-04   -0.17807E-05  1562   0.592E-03    0.135E-02
RMM:   7    -0.118153491667E+04   -0.97703E-05   -0.48227E-06  1242   0.334E-03    0.648E-03
RMM:   8    -0.118153491778E+04   -0.11100E-05   -0.90403E-07  1028   0.141E-03    0.475E-03
RMM:   9    -0.118153491758E+04    0.20245E-06   -0.32764E-07   993   0.864E-04
   8 F= -.11886604E+04 E0= -.11886604E+04  d E =-.347969E-03  mag=     3.0000
