       N       E                     dE             d eps       ncg     rms          rms(c)
DAV:   1     0.481579661905E+04    0.48158E+04   -0.18175E+05  1888   0.962E+02
DAV:   2    -0.509425635418E+02   -0.48667E+04   -0.44679E+04  2400   0.217E+02
DAV:   3    -0.120256653109E+04   -0.11516E+04   -0.11443E+04  2016   0.114E+02
DAV:   4    -0.125157370317E+04   -0.49007E+02   -0.48666E+02  1920   0.304E+01
DAV:   5    -0.125279018100E+04   -0.12165E+01   -0.12132E+01  2336   0.452E+00    0.807E+01
RMM:   6    -0.124260651129E+04    0.10184E+02   -0.84528E+01  1798   0.109E+01    0.755E+01
RMM:   7    -0.122222151832E+04    0.20385E+02   -0.10833E+01  1590   0.460E+00    0.477E+01
RMM:   8    -0.120521000209E+04    0.17012E+02   -0.15520E+01  1550   0.512E+00    0.363E+01
RMM:   9    -0.118504948249E+04    0.20161E+02   -0.30301E+01  1656   0.708E+00    0.235E+01
RMM:  10    -0.117973080426E+04    0.53187E+01   -0.16383E+01  1541   0.546E+00    0.151E+01
RMM:  11    -0.118078384501E+04   -0.10530E+01   -0.92828E+00  1551   0.414E+00    0.790E+00
RMM:  12    -0.118037283209E+04    0.41101E+00   -0.98566E-01  1578   0.163E+00    0.536E+00
RMM:  13    -0.118016535254E+04    0.20748E+00   -0.66092E-01  1576   0.113E+00    0.266E+00
RMM:  14    -0.117999613647E+04    0.16922E+00   -0.33560E-01  1602   0.780E-01    0.100E+00
RMM:  15    -0.117999821638E+04   -0.20799E-02   -0.72306E-02  1626   0.398E-01    0.602E-01
RMM:  16    -0.117999797981E+04    0.23657E-03   -0.14361E-02  1677   0.193E-01    0.319E-01
RMM:  17    -0.117999821779E+04   -0.23798E-03   -0.85180E-03  1585   0.124E-01    0.191E-01
RMM:  18    -0.117999845290E+04   -0.23511E-03   -0.18045E-03  1939   0.650E-02    0.135E-01
RMM:  19    -0.117999839335E+04    0.59548E-04   -0.91940E-04  1642   0.387E-02    0.903E-02
RMM:  20    -0.117999847606E+04   -0.82701E-04   -0.36440E-04  1628   0.256E-02    0.518E-02
RMM:  21    -0.117999847947E+04   -0.34157E-05   -0.92402E-05  1710   0.133E-02    0.335E-02
RMM:  22    -0.117999850460E+04   -0.25127E-04   -0.35998E-05  1805   0.793E-03    0.224E-02
RMM:  23    -0.117999851490E+04   -0.10301E-04   -0.15341E-05  1581   0.577E-03    0.154E-02
RMM:  24    -0.117999851613E+04   -0.12284E-05   -0.11754E-05  1490   0.431E-03    0.772E-03
RMM:  25    -0.117999851930E+04   -0.31724E-05   -0.23592E-06  1108   0.230E-03    0.405E-03
RMM:  26    -0.117999851821E+04    0.10946E-05   -0.10869E-06  1013   0.146E-03    0.303E-03
RMM:  27    -0.117999851837E+04   -0.16476E-06   -0.23931E-07  1003   0.803E-04
   1 F= -.11871428E+04 E0= -.11871428E+04  d E =-.118714E+04  mag=     1.0000
       N       E                     dE             d eps       ncg     rms          rms(c)
DAV:   1    -0.117999705373E+04    0.14645E-02   -0.46217E-01  1600   0.134E+00    0.170E-01
RMM:   2    -0.117999853501E+04   -0.14813E-02   -0.17097E-02  1754   0.207E-01    0.158E-01
RMM:   3    -0.117999885929E+04   -0.32427E-03   -0.43160E-03  2000   0.897E-02    0.143E-01
RMM:   4    -0.117999878322E+04    0.76070E-04   -0.62301E-04  1983   0.336E-02    0.126E-01
RMM:   5    -0.117999867006E+04    0.11316E-03   -0.36085E-04  1627   0.247E-02    0.843E-02
RMM:   6    -0.117999869206E+04   -0.22002E-04   -0.52570E-04  1621   0.281E-02    0.479E-02
RMM:   7    -0.117999866386E+04    0.28197E-04   -0.61181E-05  1619   0.126E-02    0.306E-02
RMM:   8    -0.117999866676E+04   -0.28955E-05   -0.57702E-05  1568   0.913E-03    0.173E-02
RMM:   9    -0.117999866420E+04    0.25548E-05   -0.96282E-06  1658   0.493E-03    0.108E-02
RMM:  10    -0.117999866419E+04    0.15985E-07   -0.17129E-05  1560   0.498E-03    0.616E-03
RMM:  11    -0.117999866374E+04    0.44119E-06   -0.18791E-06  1023   0.226E-03
   2 F= -.11871436E+04 E0= -.11871436E+04  d E =-.741207E-03  mag=     1.0000
       N       E                     dE             d eps       ncg     rms          rms(c)
DAV:   1    -0.117999916268E+04   -0.49849E-03   -0.67504E-02  1728   0.510E-01    0.654E-02
RMM:   2    -0.117999934364E+04   -0.18096E-03   -0.21709E-03  1733   0.762E-02    0.601E-02
RMM:   3    -0.117999936404E+04   -0.20400E-04   -0.38988E-04  1824   0.308E-02    0.531E-02
RMM:   4    -0.117999934898E+04    0.15058E-04   -0.85784E-05  1804   0.132E-02    0.451E-02
RMM:   5    -0.117999933555E+04    0.13434E-04   -0.59471E-05  1611   0.103E-02    0.266E-02
RMM:   6    -0.117999933860E+04   -0.30530E-05   -0.48218E-05  1631   0.886E-03    0.172E-02
RMM:   7    -0.117999933555E+04    0.30451E-05   -0.91158E-06  1549   0.440E-03    0.879E-03
RMM:   8    -0.117999933650E+04   -0.94687E-06   -0.47525E-06  1473   0.290E-03
   3 F= -.11871440E+04 E0= -.11871440E+04  d E =-.118609E-02  mag=     1.0000
       N       E                     dE             d eps       ncg     rms          rms(c)
DAV:   1    -0.117999979530E+04   -0.45974E-03   -0.20170E-01  1792   0.818E-01    0.116E-01
RMM:   2    -0.118000016508E+04   -0.36978E-03   -0.48816E-03  1730   0.112E-01    0.108E-01
RMM:   3    -0.118000020577E+04   -0.40689E-04   -0.79339E-04  1793   0.443E-02    0.929E-02
RMM:   4    -0.118000019506E+04    0.10707E-04   -0.18988E-04  1789   0.197E-02    0.714E-02
RMM:   5    -0.118000019814E+04   -0.30786E-05   -0.12690E-04  1638   0.154E-02    0.441E-02
RMM:   6    -0.118000020377E+04   -0.56241E-05   -0.47249E-05  1806   0.961E-03    0.298E-02
RMM:   7    -0.118000020717E+04   -0.34041E-05   -0.16359E-05  1596   0.554E-03    0.147E-02
RMM:   8    -0.118000020960E+04   -0.24286E-05   -0.59660E-06  1502   0.337E-03    0.949E-03
RMM:   9    -0.118000020875E+04    0.84900E-06   -0.42053E-06  1406   0.269E-03
   4 F= -.11871451E+04 E0= -.11871451E+04  d E =-.113368E-02  mag=     1.0000
