       N       E                     dE             d eps       ncg     rms          rms(c)
DAV:   1     0.489098426439E+04    0.48910E+04   -0.17369E+05  1872   0.916E+02
DAV:   2    -0.536711730724E+02   -0.49447E+04   -0.45136E+04  2520   0.207E+02
DAV:   3    -0.119227407815E+04   -0.11386E+04   -0.11336E+04  2160   0.109E+02
DAV:   4    -0.123942967609E+04   -0.47156E+02   -0.46916E+02  2016   0.289E+01
DAV:   5    -0.124082969450E+04   -0.14000E+01   -0.13972E+01  2412   0.439E+00    0.704E+01
RMM:   6    -0.122775632043E+04    0.13073E+02   -0.78945E+00  1584   0.312E+00    0.597E+01
RMM:   7    -0.118419230732E+04    0.43564E+02   -0.74520E+01  1586   0.955E+00    0.391E+01
RMM:   8    -0.117528335144E+04    0.89090E+01   -0.31648E+01  1592   0.632E+00    0.235E+01
RMM:   9    -0.117746672174E+04   -0.21834E+01   -0.21157E+01  1590   0.517E+00    0.109E+01
RMM:  10    -0.117529375854E+04    0.21730E+01   -0.28979E+00  1584   0.190E+00    0.521E+00
RMM:  11    -0.117504688981E+04    0.24687E+00   -0.13827E+00  1591   0.125E+00    0.291E+00
RMM:  12    -0.117499471657E+04    0.52173E-01   -0.18498E-01  1596   0.404E-01    0.119E+00
RMM:  13    -0.117498245719E+04    0.12259E-01   -0.19908E-01  1592   0.475E-01    0.600E-01
RMM:  14    -0.117497396049E+04    0.84967E-02   -0.40775E-02  1587   0.224E-01    0.282E-01
RMM:  15    -0.117497359085E+04    0.36964E-03   -0.23953E-03  1651   0.487E-02    0.271E-01
RMM:  16    -0.117497269053E+04    0.90033E-03   -0.95662E-03  1589   0.107E-01    0.195E-01
RMM:  17    -0.117497241677E+04    0.27376E-03   -0.66128E-04  1389   0.286E-02    0.801E-02
RMM:  18    -0.117497243290E+04   -0.16129E-04   -0.17758E-04  1109   0.139E-02
   1 F= -.11821077E+04 E0= -.11821077E+04  d E =-.118211E+04  mag=     1.0013
       N       E                     dE             d eps       ncg     rms          rms(c)
DAV:   1    -0.117497140818E+04    0.10086E-02   -0.98470E-01  1584   0.130E+00    0.120E+00
RMM:   2    -0.117497421188E+04   -0.28037E-02   -0.37685E-02  1610   0.194E-01    0.114E+00
RMM:   3    -0.117497302114E+04    0.11907E-02   -0.21328E-03  1638   0.487E-02    0.844E-01
RMM:   4    -0.117497317882E+04   -0.15768E-03   -0.55018E-03  1584   0.718E-02    0.199E-01
RMM:   5    -0.117497275071E+04    0.42811E-03   -0.63574E-04  1151   0.221E-02    0.879E-02
RMM:   6    -0.117497272959E+04    0.21122E-04   -0.23657E-04  1090   0.143E-02
   2 F= -.11821088E+04 E0= -.11821088E+04  d E =-.110376E-02  mag=     0.9999
       N       E                     dE             d eps       ncg     rms          rms(c)
DAV:   1    -0.117497406909E+04   -0.13184E-02   -0.18482E-01  1728   0.575E-01    0.530E-01
RMM:   2    -0.117497446185E+04   -0.39276E-03   -0.65191E-03  1593   0.824E-02    0.503E-01
RMM:   3    -0.117497411422E+04    0.34764E-03   -0.44883E-04  1147   0.231E-02    0.342E-01
RMM:   4    -0.117497417022E+04   -0.56000E-04   -0.12123E-03  1560   0.334E-02    0.982E-02
RMM:   5    -0.117497406766E+04    0.10256E-03   -0.21889E-04  1057   0.126E-02    0.373E-02
RMM:   6    -0.117497406632E+04    0.13424E-05   -0.30486E-05  1001   0.645E-03
   3 F= -.11821098E+04 E0= -.11821098E+04  d E =-.208776E-02  mag=     1.0000
       N       E                     dE             d eps       ncg     rms          rms(c)
DAV:   1    -0.117497531420E+04   -0.12465E-02   -0.20641E-01  1656   0.687E-01    0.415E-01
RMM:   2    -0.117497571873E+04   -0.40453E-03   -0.64144E-03  1590   0.940E-02    0.376E-01
RMM:   3    -0.117497537318E+04    0.34555E-03   -0.59379E-04  1260   0.280E-02    0.264E-01
RMM:   4    -0.117497548185E+04   -0.10866E-03   -0.17484E-03  1584   0.425E-02    0.822E-02
RMM:   5    -0.117497532156E+04    0.16029E-03   -0.37895E-04  1073   0.167E-02    0.423E-02
RMM:   6    -0.117497533363E+04   -0.12068E-04   -0.27547E-05  1007   0.645E-03
   4 F= -.11821116E+04 E0= -.11821116E+04  d E =-.176722E-02  mag=     1.0000
       N       E                     dE             d eps       ncg     rms          rms(c)
DAV:   1    -0.117497533776E+04   -0.16197E-04   -0.13924E-04  1512   0.214E-02    0.128E-02
RMM:   2    -0.117497533844E+04   -0.68498E-06   -0.15709E-05   957   0.621E-03
   5 F= -.11821115E+04 E0= -.11821115E+04  d E =-.175881E-02  mag=     1.0000
       N       E                     dE             d eps       ncg     rms          rms(c)
DAV:   1    -0.117497605872E+04   -0.72096E-03   -0.83128E-02  1728   0.403E-01    0.188E-01
RMM:   2    -0.117497615730E+04   -0.98586E-04   -0.16987E-03  1543   0.527E-02    0.172E-01
RMM:   3    -0.117497611564E+04    0.41666E-04   -0.89947E-05  1033   0.126E-02
   6 F= -.11821124E+04 E0= -.11821124E+04  d E =-.814739E-03  mag=     1.0000
       N       E                     dE             d eps       ncg     rms          rms(c)
DAV:   1    -0.117497605006E+04    0.10724E-03   -0.39199E-01  1728   0.878E-01    0.436E-01
RMM:   2    -0.117497657074E+04   -0.52068E-03   -0.77221E-03  1584   0.111E-01    0.400E-01
RMM:   3    -0.117497639529E+04    0.17545E-03   -0.40849E-04  1197   0.257E-02    0.271E-01
RMM:   4    -0.117497650336E+04   -0.10807E-03   -0.80279E-04  1394   0.298E-02    0.590E-02
RMM:   5    -0.117497646304E+04    0.40324E-04   -0.86550E-05  1037   0.111E-02
   7 F= -.11821128E+04 E0= -.11821128E+04  d E =-.124562E-02  mag=     1.0000
       N       E                     dE             d eps       ncg     rms          rms(c)
DAV:   1    -0.117497786069E+04   -0.13573E-02   -0.10286E-01  1728   0.464E-01    0.284E-01
RMM:   2    -0.117497805838E+04   -0.19768E-03   -0.32512E-03  1594   0.693E-02    0.266E-01
RMM:   3    -0.117497789442E+04    0.16395E-03   -0.24086E-04  1076   0.174E-02    0.190E-01
RMM:   4    -0.117497791631E+04   -0.21882E-04   -0.63979E-04  1360   0.249E-02
   8 F= -.11821140E+04 E0= -.11821140E+04  d E =-.121577E-02  mag=     1.0000
       N       E                     dE             d eps       ncg     rms          rms(c)
DAV:   1    -0.117497786037E+04    0.34053E-04   -0.12146E-03  1800   0.505E-02    0.321E-02
RMM:   2    -0.117497785690E+04    0.34683E-05   -0.66387E-05   992   0.952E-03
   9 F= -.11821140E+04 E0= -.11821140E+04  d E =-.118016E-02  mag=     1.0000
