       N       E                     dE             d eps       ncg     rms          rms(c)
DAV:   1     0.493847356963E+04    0.49385E+04   -0.17555E+05  1872   0.923E+02
DAV:   2    -0.634418409889E+02   -0.50019E+04   -0.45787E+04  2592   0.208E+02
DAV:   3    -0.120430136238E+04   -0.11409E+04   -0.11363E+04  2088   0.109E+02
DAV:   4    -0.125028094029E+04   -0.45980E+02   -0.45737E+02  1944   0.288E+01
DAV:   5    -0.125150824748E+04   -0.12273E+01   -0.12249E+01  2340   0.441E+00    0.645E+01
RMM:   6    -0.123803644264E+04    0.13472E+02   -0.80777E+00  1590   0.318E+00    0.527E+01
RMM:   7    -0.119439639362E+04    0.43640E+02   -0.80842E+01  1591   0.979E+00    0.290E+01
RMM:   8    -0.118495362056E+04    0.94428E+01   -0.38028E+01  1584   0.699E+00    0.138E+01
RMM:   9    -0.118618591552E+04   -0.12323E+01   -0.11534E+01  1586   0.390E+00    0.920E+00
RMM:  10    -0.118517994483E+04    0.10060E+01   -0.67471E+00  1590   0.266E+00    0.403E+00
RMM:  11    -0.118485828335E+04    0.32166E+00   -0.44126E-01  1626   0.705E-01    0.183E+00
RMM:  12    -0.118478822183E+04    0.70062E-01   -0.29331E-01  1623   0.434E-01    0.614E-01
RMM:  13    -0.118478391129E+04    0.43105E-02   -0.68773E-02  1588   0.292E-01    0.344E-01
RMM:  14    -0.118477991443E+04    0.39969E-02   -0.19468E-02  1587   0.143E-01    0.181E-01
RMM:  15    -0.118477982187E+04    0.92561E-04   -0.28505E-03  1593   0.620E-02    0.919E-02
RMM:  16    -0.118477982106E+04    0.81050E-06   -0.33589E-04  1191   0.215E-02
   1 F= -.11921895E+04 E0= -.11921895E+04  d E =-.119219E+04  mag=    -0.0017
       N       E                     dE             d eps       ncg     rms          rms(c)
DAV:   1    -0.118477832144E+04    0.15004E-02   -0.46265E-01  1692   0.106E+00    0.246E-01
RMM:   2    -0.118477949167E+04   -0.11702E-02   -0.16490E-02  1631   0.169E-01    0.215E-01
RMM:   3    -0.118477896606E+04    0.52561E-03   -0.91508E-04  1592   0.379E-02    0.179E-01
RMM:   4    -0.118477868798E+04    0.27808E-03   -0.32889E-03  1584   0.620E-02    0.764E-02
RMM:   5    -0.118477860941E+04    0.78571E-04   -0.83559E-05  1052   0.131E-02
   2 F= -.11921891E+04 E0= -.11921891E+04  d E =0.387244E-03  mag=    -0.0004
       N       E                     dE             d eps       ncg     rms          rms(c)
DAV:   1    -0.118478035554E+04   -0.16676E-02   -0.15094E-01  1800   0.601E-01    0.134E-01
RMM:   2    -0.118478060095E+04   -0.24541E-03   -0.44649E-03  1627   0.897E-02    0.115E-01
RMM:   3    -0.118478036997E+04    0.23098E-03   -0.26267E-04  1131   0.214E-02    0.895E-02
RMM:   4    -0.118478026265E+04    0.10733E-03   -0.11614E-03  1580   0.376E-02    0.360E-02
RMM:   5    -0.118478024044E+04    0.22201E-04   -0.22731E-05   999   0.751E-03
   3 F= -.11921903E+04 E0= -.11921903E+04  d E =-.770729E-03  mag=    -0.0002
