       N       E                     dE             d eps       ncg     rms          rms(c)
DAV:   1     0.514461830428E+04    0.51446E+04   -0.16859E+05  1800   0.910E+02
DAV:   2     0.326883926068E+02   -0.51119E+04   -0.46403E+04  2556   0.216E+02
DAV:   3    -0.117245901192E+04   -0.12051E+04   -0.11986E+04  2160   0.115E+02
DAV:   4    -0.122704723380E+04   -0.54588E+02   -0.54194E+02  2052   0.333E+01
DAV:   5    -0.122935570223E+04   -0.23085E+01   -0.23018E+01  2484   0.664E+00    0.595E+01
RMM:   6    -0.121710585506E+04    0.12250E+02   -0.63150E+00  1828   0.334E+00    0.489E+01
RMM:   7    -0.118225158940E+04    0.34854E+02   -0.39781E+01  1882   0.841E+00    0.298E+01
RMM:   8    -0.117036071269E+04    0.11891E+02   -0.15307E+01  1898   0.766E+00    0.225E+01
RMM:   9    -0.116775471927E+04    0.26060E+01   -0.39461E+01  1975   0.883E+00    0.900E+00
RMM:  10    -0.116726903516E+04    0.48568E+00   -0.19696E+00  1953   0.459E+00    0.598E+00
RMM:  11    -0.116704851730E+04    0.22052E+00   -0.17696E+00  1926   0.260E+00    0.183E+00
RMM:  12    -0.116707344781E+04   -0.24931E-01   -0.26475E-01  1938   0.143E+00    0.116E+00
RMM:  13    -0.116704551198E+04    0.27936E-01   -0.11471E-01  1901   0.641E-01    0.582E-01
RMM:  14    -0.116704257796E+04    0.29340E-02   -0.39297E-02  1995   0.365E-01    0.266E-01
RMM:  15    -0.116704309014E+04   -0.51218E-03   -0.84595E-03  1988   0.152E-01    0.217E-01
RMM:  16    -0.116704308732E+04    0.28166E-05   -0.12254E-03  1745   0.673E-02    0.140E-01
RMM:  17    -0.116704320429E+04   -0.11697E-03   -0.13521E-03  1812   0.629E-02    0.606E-02
RMM:  18    -0.116704331192E+04   -0.10762E-03   -0.19357E-04  1098   0.440E-02    0.404E-02
RMM:  19    -0.116704330520E+04    0.67124E-05   -0.98823E-05  1074   0.251E-02
   1 F= -.11746661E+04 E0= -.11746661E+04  d E =-.117467E+04  mag=    -0.0007
       N       E                     dE             d eps       ncg     rms          rms(c)
DAV:   1    -0.116704235182E+04    0.96010E-03   -0.25421E-01  1656   0.830E-01    0.144E-01
RMM:   2    -0.116704284764E+04   -0.49583E-03   -0.78410E-03  2014   0.141E-01    0.139E-01
RMM:   3    -0.116704270308E+04    0.14457E-03   -0.43060E-04  1328   0.515E-02    0.127E-01
RMM:   4    -0.116704218027E+04    0.52281E-03   -0.25400E-03  1998   0.723E-02    0.388E-02
RMM:   5    -0.116704217688E+04    0.33859E-05   -0.11377E-04  1094   0.314E-02
   2 F= -.11746655E+04 E0= -.11746655E+04  d E =0.615268E-03  mag=    -0.0002
       N       E                     dE             d eps       ncg     rms          rms(c)
DAV:   1    -0.116704377609E+04   -0.15958E-02   -0.92645E-02  1836   0.500E-01    0.809E-02
RMM:   2    -0.116704386330E+04   -0.87209E-04   -0.20112E-03  1810   0.792E-02    0.758E-02
RMM:   3    -0.116704377745E+04    0.85848E-04   -0.15969E-04  1029   0.493E-02
   3 F= -.11746667E+04 E0= -.11746667E+04  d E =-.672783E-03  mag=     0.0001
