       N       E                     dE             d eps       ncg     rms          rms(c)
DAV:   1     0.490171256324E+04    0.49017E+04   -0.16943E+05  1836   0.903E+02
DAV:   2    -0.483128230204E+02   -0.49500E+04   -0.44918E+04  2520   0.208E+02
DAV:   3    -0.118752480789E+04   -0.11392E+04   -0.11333E+04  2160   0.111E+02
DAV:   4    -0.123365054797E+04   -0.46126E+02   -0.45892E+02  2124   0.300E+01
DAV:   5    -0.123494369508E+04   -0.12931E+01   -0.12891E+01  2340   0.464E+00    0.688E+01
RMM:   6    -0.121972791750E+04    0.15216E+02   -0.25633E+01  1599   0.528E+00    0.534E+01
RMM:   7    -0.120190852739E+04    0.17819E+02   -0.10798E+01  1585   0.399E+00    0.421E+01
RMM:   8    -0.117322546486E+04    0.28683E+02   -0.50557E+01  1584   0.827E+00    0.257E+01
RMM:   9    -0.117084515724E+04    0.23803E+01   -0.31718E+01  1584   0.648E+00    0.120E+01
RMM:  10    -0.117121874392E+04   -0.37359E+00   -0.42011E+00  1594   0.289E+00    0.875E+00
RMM:  11    -0.116967295016E+04    0.15458E+01   -0.18905E+00  1618   0.137E+00    0.600E+00
RMM:  12    -0.116981121971E+04   -0.13827E+00   -0.15296E+00  1646   0.131E+00    0.411E+00
RMM:  13    -0.116918186555E+04    0.62935E+00   -0.99446E-01  1614   0.104E+00    0.959E-01
RMM:  14    -0.116919012508E+04   -0.82595E-02   -0.94563E-02  1674   0.420E-01    0.106E+00
RMM:  15    -0.116918180627E+04    0.83188E-02   -0.83611E-03  1680   0.110E-01    0.784E-01
RMM:  16    -0.116917881408E+04    0.29922E-02   -0.21376E-02  1634   0.147E-01    0.412E-01
RMM:  17    -0.116917839344E+04    0.42064E-03   -0.41842E-03  1600   0.811E-02    0.239E-01
RMM:  18    -0.116917854453E+04   -0.15110E-03   -0.14643E-03  1404   0.430E-02    0.167E-01
RMM:  19    -0.116917858818E+04   -0.43644E-04   -0.21525E-04  1103   0.211E-02
   1 F= -.11764439E+04 E0= -.11764439E+04  d E =-.117644E+04  mag=     0.0006
       N       E                     dE             d eps       ncg     rms          rms(c)
DAV:   1    -0.116917685693E+04    0.16876E-02   -0.29826E-01  1764   0.888E-01    0.174E-01
RMM:   2    -0.116917757654E+04   -0.71961E-03   -0.88201E-03  1607   0.137E-01    0.184E-01
RMM:   3    -0.116917765868E+04   -0.82145E-04   -0.60928E-04  1377   0.432E-02
   2 F= -.11764433E+04 E0= -.11764433E+04  d E =0.621275E-03  mag=     0.0003
       N       E                     dE             d eps       ncg     rms          rms(c)
DAV:   1    -0.116917847997E+04   -0.90343E-03   -0.10898E-01  1692   0.534E-01    0.177E-01
RMM:   2    -0.116917879569E+04   -0.31572E-03   -0.29778E-03  1586   0.836E-02    0.113E-01
RMM:   3    -0.116917881264E+04   -0.16951E-04   -0.20859E-04  1094   0.277E-02
   3 F= -.11764442E+04 E0= -.11764442E+04  d E =-.347957E-03  mag=    -0.0000
