       N       E                     dE             d eps       ncg     rms          rms(c)
DAV:   1     0.464814845825E+04    0.46481E+04   -0.17774E+05  1888   0.942E+02
DAV:   2    -0.929574908483E+02   -0.47411E+04   -0.43188E+04  2400   0.212E+02
DAV:   3    -0.119509760408E+04   -0.11021E+04   -0.10945E+04  1984   0.110E+02
DAV:   4    -0.124181968667E+04   -0.46722E+02   -0.46429E+02  1920   0.297E+01
DAV:   5    -0.124300425578E+04   -0.11846E+01   -0.11812E+01  2272   0.450E+00    0.785E+01
RMM:   6    -0.122199900539E+04    0.21005E+02   -0.24057E+01  1608   0.562E+00    0.521E+01
RMM:   7    -0.120764784866E+04    0.14351E+02   -0.12595E+01  1542   0.470E+00    0.426E+01
RMM:   8    -0.118537916491E+04    0.22269E+02   -0.31229E+01  1606   0.706E+00    0.302E+01
RMM:   9    -0.117240917044E+04    0.12970E+02   -0.24216E+01  1569   0.663E+00    0.213E+01
RMM:  10    -0.117209588511E+04    0.31329E+00   -0.97186E+00  1540   0.437E+00    0.142E+01
RMM:  11    -0.117314963756E+04   -0.10538E+01   -0.40796E+00  1552   0.281E+00    0.860E+00
RMM:  12    -0.117274620543E+04    0.40343E+00   -0.10114E+00  1577   0.150E+00    0.448E+00
RMM:  13    -0.117244473311E+04    0.30147E+00   -0.64077E-01  1538   0.103E+00    0.227E+00
RMM:  14    -0.117242231252E+04    0.22421E-01   -0.18884E-01  1536   0.600E-01    0.121E+00
RMM:  15    -0.117242561580E+04   -0.33033E-02   -0.18721E-02  1615   0.226E-01    0.703E-01
RMM:  16    -0.117242603156E+04   -0.41576E-03   -0.10069E-02  1573   0.144E-01    0.332E-01
RMM:  17    -0.117242636972E+04   -0.33816E-03   -0.26900E-03  1589   0.771E-02    0.183E-01
RMM:  18    -0.117242651587E+04   -0.14616E-03   -0.93394E-04  1663   0.429E-02    0.139E-01
RMM:  19    -0.117242660290E+04   -0.87029E-04   -0.30164E-04  1660   0.236E-02    0.972E-02
RMM:  20    -0.117242666453E+04   -0.61631E-04   -0.14210E-04  1555   0.170E-02    0.471E-02
RMM:  21    -0.117242666588E+04   -0.13467E-05   -0.78312E-05  1561   0.112E-02    0.269E-02
RMM:  22    -0.117242666791E+04   -0.20247E-05   -0.17709E-05  1553   0.612E-03    0.153E-02
RMM:  23    -0.117242666317E+04    0.47329E-05   -0.13320E-05  1540   0.490E-03    0.122E-02
RMM:  24    -0.117242666243E+04    0.74033E-06   -0.42780E-06  1192   0.267E-03
   1 F= -.11794963E+04 E0= -.11794963E+04  d E =-.117950E+04  mag=     1.0006
       N       E                     dE             d eps       ncg     rms          rms(c)
DAV:   1    -0.117242462462E+04    0.20386E-02   -0.29968E-01  1952   0.120E+00    0.210E-01
RMM:   2    -0.117242616586E+04   -0.15412E-02   -0.17522E-02  1682   0.183E-01    0.178E-01
RMM:   3    -0.117242649152E+04   -0.32566E-03   -0.48906E-03  1780   0.766E-02    0.155E-01
RMM:   4    -0.117242641968E+04    0.71835E-04   -0.52275E-04  1789   0.295E-02    0.132E-01
RMM:   5    -0.117242623765E+04    0.18203E-03   -0.61211E-04  1538   0.316E-02    0.655E-02
RMM:   6    -0.117242626541E+04   -0.27756E-04   -0.33445E-04  1546   0.239E-02    0.408E-02
RMM:   7    -0.117242624018E+04    0.25232E-04   -0.52957E-05  1554   0.104E-02    0.242E-02
RMM:   8    -0.117242624173E+04   -0.15535E-05   -0.26547E-05  1547   0.640E-03    0.130E-02
RMM:   9    -0.117242623852E+04    0.32126E-05   -0.78206E-06  1517   0.388E-03    0.831E-03
RMM:  10    -0.117242623780E+04    0.72041E-06   -0.68123E-06  1488   0.336E-03
   2 F= -.11794963E+04 E0= -.11794963E+04  d E =-.129646E-04  mag=     0.9999
       N       E                     dE             d eps       ncg     rms          rms(c)
DAV:   1    -0.117242677204E+04   -0.53352E-03   -0.74226E-02  1920   0.596E-01    0.104E-01
RMM:   2    -0.117242709768E+04   -0.32565E-03   -0.38252E-03  1651   0.877E-02    0.882E-02
RMM:   3    -0.117242716040E+04   -0.62715E-04   -0.10417E-03  1692   0.356E-02    0.759E-02
RMM:   4    -0.117242714141E+04    0.18993E-04   -0.12131E-04  1743   0.145E-02    0.641E-02
RMM:   5    -0.117242709715E+04    0.44252E-04   -0.14212E-04  1541   0.153E-02    0.319E-02
RMM:   6    -0.117242710176E+04   -0.46103E-05   -0.75435E-05  1551   0.113E-02    0.196E-02
RMM:   7    -0.117242709629E+04    0.54777E-05   -0.11001E-05  1536   0.484E-03    0.114E-02
RMM:   8    -0.117242709609E+04    0.19767E-06   -0.66310E-06  1427   0.312E-03
   3 F= -.11794970E+04 E0= -.11794970E+04  d E =-.652746E-03  mag=     0.9999
       N       E                     dE             d eps       ncg     rms          rms(c)
DAV:   1    -0.117242682791E+04    0.26837E-03   -0.24963E-01  1920   0.954E-01    0.194E-01
RMM:   2    -0.117242750111E+04   -0.67320E-03   -0.85291E-03  1645   0.144E-01    0.213E-01
RMM:   3    -0.117242769815E+04   -0.19704E-03   -0.20300E-03  1675   0.582E-02    0.200E-01
RMM:   4    -0.117242769145E+04    0.67022E-05   -0.27418E-04  1885   0.233E-02    0.209E-01
RMM:   5    -0.117242765168E+04    0.39770E-04   -0.59120E-05  1612   0.107E-02    0.217E-01
RMM:   6    -0.117242770256E+04   -0.50881E-04   -0.65206E-04  1704   0.294E-02    0.296E-01
RMM:   7    -0.117242786476E+04   -0.16220E-03   -0.74410E-04  1725   0.347E-02    0.387E-01
RMM:   8    -0.117242787990E+04   -0.15137E-04   -0.18900E-04  1558   0.185E-02    0.380E-01
RMM:   9    -0.117242757348E+04    0.30641E-03   -0.14421E-04  1613   0.153E-02    0.274E-01
RMM:  10    -0.117242737192E+04    0.20156E-03   -0.41729E-04  1829   0.238E-02    0.115E-01
RMM:  11    -0.117242740284E+04   -0.30920E-04   -0.25502E-05  1553   0.784E-03    0.138E-01
RMM:  12    -0.117242737884E+04    0.23996E-04   -0.15415E-05  1577   0.540E-03    0.941E-02
RMM:  13    -0.117242735988E+04    0.18963E-04   -0.20921E-05  1616   0.561E-03    0.545E-02
RMM:  14    -0.117242735935E+04    0.52584E-06   -0.54924E-06  1357   0.284E-03
   4 F= -.11794973E+04 E0= -.11794972E+04  d E =-.292206E-03  mag=     0.9999
       N       E                     dE             d eps       ncg     rms          rms(c)
DAV:   1    -0.117242746326E+04   -0.10338E-03   -0.33991E-02  1728   0.354E-01    0.661E-02
RMM:   2    -0.117242754666E+04   -0.83402E-04   -0.11217E-03  1650   0.518E-02    0.739E-02
RMM:   3    -0.117242756960E+04   -0.22937E-04   -0.26572E-04  1673   0.210E-02    0.715E-02
RMM:   4    -0.117242756922E+04    0.37526E-06   -0.35806E-05  1795   0.833E-03    0.725E-02
RMM:   5    -0.117242755803E+04    0.11189E-04   -0.61546E-06  1369   0.371E-03    0.648E-02
RMM:   6    -0.117242755046E+04    0.75760E-05   -0.37133E-04  2247   0.220E-02    0.500E-02
RMM:   7    -0.117242753089E+04    0.19567E-04   -0.13494E-05  1536   0.518E-03    0.380E-02
RMM:   8    -0.117242752233E+04    0.85664E-05   -0.15460E-05  1501   0.430E-03    0.285E-02
RMM:   9    -0.117242752032E+04    0.20050E-05   -0.45695E-06  1272   0.272E-03    0.217E-02
RMM:  10    -0.117242751812E+04    0.22045E-05   -0.10088E-05  1570   0.354E-03    0.118E-02
RMM:  11    -0.117242751758E+04    0.54018E-06   -0.14431E-06  1004   0.175E-03
   5 F= -.11794974E+04 E0= -.11794974E+04  d E =-.439647E-03  mag=     0.9999
       N       E                     dE             d eps       ncg     rms          rms(c)
DAV:   1    -0.117242776303E+04   -0.24492E-03   -0.14708E-01  1760   0.724E-01    0.897E-02
RMM:   2    -0.117242809020E+04   -0.32717E-03   -0.38248E-03  1641   0.985E-02    0.847E-02
RMM:   3    -0.117242816665E+04   -0.76444E-04   -0.96812E-04  1681   0.418E-02    0.754E-02
RMM:   4    -0.117242816222E+04    0.44226E-05   -0.13711E-04  1854   0.171E-02    0.716E-02
RMM:   5    -0.117242813457E+04    0.27655E-04   -0.52506E-05  1545   0.103E-02    0.486E-02
RMM:   6    -0.117242814086E+04   -0.62857E-05   -0.14698E-04  1563   0.154E-02    0.287E-02
RMM:   7    -0.117242813545E+04    0.54011E-05   -0.13504E-05  1553   0.610E-03    0.211E-02
RMM:   8    -0.117242813367E+04    0.17869E-05   -0.55697E-06  1440   0.321E-03    0.133E-02
RMM:   9    -0.117242813384E+04   -0.17374E-06   -0.39103E-06  1309   0.247E-03
   6 F= -.11794980E+04 E0= -.11794980E+04  d E =-.637124E-03  mag=     0.9999
