       N       E                     dE             d eps       ncg     rms          rms(c)
DAV:   1     0.486136684075E+04    0.48614E+04   -0.17259E+05  1872   0.908E+02
DAV:   2    -0.598168137108E+02   -0.49212E+04   -0.44734E+04  2520   0.205E+02
DAV:   3    -0.119204646741E+04   -0.11322E+04   -0.11280E+04  2160   0.109E+02
DAV:   4    -0.123672499655E+04   -0.44679E+02   -0.44454E+02  2052   0.284E+01
DAV:   5    -0.123785194277E+04   -0.11269E+01   -0.11241E+01  2304   0.420E+00    0.637E+01
RMM:   6    -0.122350417924E+04    0.14348E+02   -0.80061E+00  1588   0.318E+00    0.523E+01
RMM:   7    -0.118510624466E+04    0.38398E+02   -0.85896E+01  1593   0.992E+00    0.295E+01
RMM:   8    -0.117639527424E+04    0.87110E+01   -0.10660E+01  1606   0.372E+00    0.231E+01
RMM:   9    -0.117464418192E+04    0.17511E+01   -0.29874E+01  1584   0.609E+00    0.117E+01
RMM:  10    -0.117354806270E+04    0.10961E+01   -0.49668E+00  1620   0.231E+00    0.725E+00
RMM:  11    -0.117318346184E+04    0.36460E+00   -0.27082E-01  1671   0.612E-01    0.637E+00
RMM:  12    -0.117230094156E+04    0.88252E+00   -0.35291E+00  1584   0.200E+00    0.173E+00
RMM:  13    -0.117224326869E+04    0.57673E-01   -0.75284E-02  1633   0.356E-01    0.991E-01
RMM:  14    -0.117222447852E+04    0.18790E-01   -0.83990E-02  1607   0.253E-01    0.644E-01
RMM:  15    -0.117221613341E+04    0.83451E-02   -0.19724E-02  1608   0.156E-01    0.287E-01
RMM:  16    -0.117221591656E+04    0.21685E-03   -0.46659E-03  1651   0.762E-02    0.206E-01
RMM:  17    -0.117221642927E+04   -0.51272E-03   -0.19506E-03  1567   0.439E-02    0.151E-01
RMM:  18    -0.117221612921E+04    0.30007E-03   -0.55901E-04  1330   0.265E-02    0.652E-02
RMM:  19    -0.117221618880E+04   -0.59587E-04   -0.23358E-04  1120   0.172E-02
   1 F= -.11794887E+04 E0= -.11794887E+04  d E =-.117949E+04  mag=    -0.0010
       N       E                     dE             d eps       ncg     rms          rms(c)
DAV:   1    -0.117221100006E+04    0.51291E-02   -0.77879E-01  1656   0.138E+00    0.416E-01
RMM:   2    -0.117221369707E+04   -0.26970E-02   -0.33307E-02  1644   0.235E-01    0.374E-01
RMM:   3    -0.117221318282E+04    0.51426E-03   -0.21646E-03  1683   0.517E-02    0.319E-01
RMM:   4    -0.117221281726E+04    0.36555E-03   -0.35583E-03  1584   0.644E-02    0.117E-01
RMM:   5    -0.117221278337E+04    0.33896E-04   -0.21557E-04  1111   0.197E-02
   2 F= -.11794866E+04 E0= -.11794866E+04  d E =0.211270E-02  mag=    -0.0001
       N       E                     dE             d eps       ncg     rms          rms(c)
DAV:   1    -0.117221627093E+04   -0.34537E-02   -0.30607E-01  1764   0.860E-01    0.257E-01
RMM:   2    -0.117221711273E+04   -0.84180E-03   -0.11222E-02  1627   0.136E-01    0.229E-01
RMM:   3    -0.117221680521E+04    0.30752E-03   -0.77788E-04  1338   0.320E-02    0.186E-01
RMM:   4    -0.117221664626E+04    0.15895E-03   -0.17301E-03  1584   0.451E-02    0.648E-02
RMM:   5    -0.117221661797E+04    0.28290E-04   -0.61985E-05  1044   0.115E-02
   3 F= -.11794896E+04 E0= -.11794896E+04  d E =-.904601E-03  mag=    -0.0000
