       N       E                     dE             d eps       ncg     rms          rms(c)
DAV:   1     0.493639207492E+04    0.49364E+04   -0.16892E+05  1800   0.905E+02
DAV:   2    -0.351631554993E+02   -0.49716E+04   -0.45235E+04  2520   0.209E+02
DAV:   3    -0.117326336066E+04   -0.11381E+04   -0.11329E+04  2160   0.111E+02
DAV:   4    -0.122006751743E+04   -0.46804E+02   -0.46603E+02  2052   0.295E+01
DAV:   5    -0.122127150730E+04   -0.12040E+01   -0.12022E+01  2376   0.443E+00    0.600E+01
RMM:   6    -0.120961077003E+04    0.11661E+02   -0.71333E+00  1584   0.330E+00    0.490E+01
RMM:   7    -0.117392931278E+04    0.35681E+02   -0.46877E+01  1584   0.801E+00    0.299E+01
RMM:   8    -0.116146580826E+04    0.12464E+02   -0.22702E+01  1584   0.552E+00    0.202E+01
RMM:   9    -0.116051987316E+04    0.94594E+00   -0.25241E+01  1584   0.573E+00    0.909E+00
RMM:  10    -0.116015027177E+04    0.36960E+00   -0.68330E-01  1619   0.123E+00    0.496E+00
RMM:  11    -0.115969355323E+04    0.45672E+00   -0.20258E+00  1584   0.157E+00    0.222E+00
RMM:  12    -0.115969700823E+04   -0.34550E-02   -0.12253E-01  1589   0.471E-01    0.692E-01
RMM:  13    -0.115969127032E+04    0.57379E-02   -0.48698E-02  1584   0.253E-01    0.381E-01
RMM:  14    -0.115968910475E+04    0.21656E-02   -0.92757E-03  1591   0.124E-01    0.147E-01
RMM:  15    -0.115968903923E+04    0.65516E-04   -0.22573E-03  1604   0.596E-02    0.933E-02
RMM:  16    -0.115968922316E+04   -0.18393E-03   -0.42522E-04  1293   0.266E-02    0.781E-02
RMM:  17    -0.115968929040E+04   -0.67244E-04   -0.37894E-04  1267   0.233E-02
   1 F= -.11667108E+04 E0= -.11667108E+04  d E =-.116671E+04  mag=     0.9984
       N       E                     dE             d eps       ncg     rms          rms(c)
DAV:   1    -0.115968731731E+04    0.19058E-02   -0.49211E-01  1728   0.115E+00    0.203E-01
RMM:   2    -0.115968831971E+04   -0.10024E-02   -0.15959E-02  1584   0.177E-01    0.197E-01
RMM:   3    -0.115968801814E+04    0.30157E-03   -0.87704E-04  1536   0.416E-02    0.183E-01
RMM:   4    -0.115968685315E+04    0.11650E-02   -0.47319E-03  1584   0.742E-02    0.672E-02
RMM:   5    -0.115968682670E+04    0.26451E-04   -0.14322E-04  1065   0.183E-02
   2 F= -.11667085E+04 E0= -.11667085E+04  d E =0.234859E-02  mag=     0.9996
       N       E                     dE             d eps       ncg     rms          rms(c)
DAV:   1    -0.115969035226E+04   -0.34991E-02   -0.22665E-01  1692   0.779E-01    0.122E-01
RMM:   2    -0.115969065383E+04   -0.30157E-03   -0.54167E-03  1584   0.109E-01    0.117E-01
RMM:   3    -0.115969051003E+04    0.14380E-03   -0.26304E-04  1163   0.243E-02    0.107E-01
RMM:   4    -0.115969006939E+04    0.44065E-03   -0.18086E-03  1584   0.468E-02    0.384E-02
RMM:   5    -0.115969006324E+04    0.61458E-05   -0.40967E-05  1013   0.113E-02
   3 F= -.11667116E+04 E0= -.11667116E+04  d E =-.807291E-03  mag=     0.9999
