       N       E                     dE             d eps       ncg     rms          rms(c)
DAV:   1     0.502856501229E+04    0.50286E+04   -0.17398E+05  1872   0.918E+02
DAV:   2    -0.132206771880E+02   -0.50418E+04   -0.46030E+04  2520   0.211E+02
DAV:   3    -0.118355059557E+04   -0.11703E+04   -0.11652E+04  2124   0.115E+02
DAV:   4    -0.124162241505E+04   -0.58072E+02   -0.57798E+02  2088   0.342E+01
DAV:   5    -0.124370743222E+04   -0.20850E+01   -0.20804E+01  2448   0.606E+00    0.617E+01
RMM:   6    -0.123048331778E+04    0.13224E+02   -0.72731E+00  1672   0.334E+00    0.508E+01
RMM:   7    -0.118743728822E+04    0.43046E+02   -0.73508E+01  1850   0.111E+01    0.293E+01
RMM:   8    -0.118086667844E+04    0.65706E+01   -0.15233E+01  1789   0.908E+00    0.190E+01
RMM:   9    -0.117908073587E+04    0.17859E+01   -0.30382E+01  1780   0.754E+00    0.971E+00
RMM:  10    -0.117935357343E+04   -0.27284E+00   -0.36916E+00  1825   0.679E+00    0.816E+00
RMM:  11    -0.117851379274E+04    0.83978E+00   -0.30787E+00  1850   0.225E+00    0.318E+00
RMM:  12    -0.117851058425E+04    0.32085E-02   -0.26583E-01  1812   0.162E+00    0.198E+00
RMM:  13    -0.117842881717E+04    0.81767E-01   -0.21147E-01  1938   0.604E-01    0.119E+00
RMM:  14    -0.117841829102E+04    0.10526E-01   -0.10059E-01  1744   0.494E-01    0.798E-01
RMM:  15    -0.117841606665E+04    0.22244E-02   -0.12391E-02  1785   0.331E-01    0.609E-01
RMM:  16    -0.117841638493E+04   -0.31828E-03   -0.52165E-03  1864   0.102E-01    0.509E-01
RMM:  17    -0.117841647303E+04   -0.88105E-04   -0.17147E-03  1681   0.786E-02    0.420E-01
RMM:  18    -0.117841648624E+04   -0.13210E-04   -0.93589E-04  1524   0.691E-02
   1 F= -.11854604E+04 E0= -.11854604E+04  d E =-.118546E+04  mag=    -0.0017
       N       E                     dE             d eps       ncg     rms          rms(c)
DAV:   1    -0.117841533968E+04    0.11334E-02   -0.35505E-01  1692   0.900E-01    0.249E-01
RMM:   2    -0.117841630491E+04   -0.96523E-03   -0.12512E-02  1812   0.157E-01    0.220E-01
RMM:   3    -0.117841615415E+04    0.15076E-03   -0.12793E-03  1430   0.116E-01    0.199E-01
RMM:   4    -0.117841590794E+04    0.24621E-03   -0.98588E-04  1534   0.501E-02    0.113E-01
RMM:   5    -0.117841591044E+04   -0.25032E-05   -0.33959E-04  1215   0.565E-02
   2 F= -.11854597E+04 E0= -.11854597E+04  d E =0.710976E-03  mag=    -0.0000
       N       E                     dE             d eps       ncg     rms          rms(c)
DAV:   1    -0.117841711087E+04   -0.12029E-02   -0.12782E-01  1800   0.535E-01    0.108E-01
RMM:   2    -0.117841730452E+04   -0.19366E-03   -0.34894E-03  1664   0.895E-02    0.950E-02
RMM:   3    -0.117841724364E+04    0.60886E-04   -0.53512E-04  1203   0.846E-02
   3 F= -.11854611E+04 E0= -.11854611E+04  d E =-.699997E-03  mag=    -0.0000
