       N       E                     dE             d eps       ncg     rms          rms(c)
DAV:   1     0.532797020638E+04    0.53280E+04   -0.17340E+05  1800   0.934E+02
DAV:   2     0.842856394380E+02   -0.52437E+04   -0.47833E+04  2484   0.220E+02
DAV:   3    -0.118325859806E+04   -0.12675E+04   -0.12603E+04  2160   0.119E+02
DAV:   4    -0.124117578280E+04   -0.57917E+02   -0.57458E+02  2016   0.343E+01
DAV:   5    -0.124361429032E+04   -0.24385E+01   -0.24307E+01  2520   0.684E+00    0.604E+01
RMM:   6    -0.123161576301E+04    0.11999E+02   -0.61063E+00  1781   0.339E+00    0.494E+01
RMM:   7    -0.118874374799E+04    0.42872E+02   -0.62851E+01  1936   0.104E+01    0.284E+01
RMM:   8    -0.118181051403E+04    0.69332E+01   -0.17529E+01  1948   0.824E+00    0.175E+01
RMM:   9    -0.118151299498E+04    0.29752E+00   -0.25842E+01  1998   0.757E+00    0.932E+00
RMM:  10    -0.118049684450E+04    0.10162E+01   -0.29498E+00  1983   0.411E+00    0.401E+00
RMM:  11    -0.118055411358E+04   -0.57269E-01   -0.78577E-01  2023   0.179E+00    0.178E+00
RMM:  12    -0.118054185030E+04    0.12263E-01   -0.28525E-01  2037   0.882E-01    0.101E+00
RMM:  13    -0.118052251927E+04    0.19331E-01   -0.24199E-01  1810   0.692E-01    0.578E-01
RMM:  14    -0.118051407971E+04    0.84396E-02   -0.48293E-02  1854   0.700E-01    0.206E-01
RMM:  15    -0.118051744191E+04   -0.33622E-02   -0.25820E-02  2021   0.323E-01    0.271E-01
RMM:  16    -0.118051587490E+04    0.15670E-02   -0.49788E-03  1910   0.120E-01    0.113E-01
RMM:  17    -0.118051629212E+04   -0.41722E-03   -0.99384E-04  1680   0.779E-02    0.102E-01
RMM:  18    -0.118051617705E+04    0.11507E-03   -0.30132E-04  1271   0.575E-02    0.471E-02
RMM:  19    -0.118051619332E+04   -0.16269E-04   -0.95802E-04  1700   0.500E-02
   1 F= -.11882269E+04 E0= -.11882269E+04  d E =-.118823E+04  mag=    -0.0002
       N       E                     dE             d eps       ncg     rms          rms(c)
DAV:   1    -0.118051681910E+04   -0.64205E-03   -0.43533E-01  1908   0.106E+00    0.213E-01
RMM:   2    -0.118051705470E+04   -0.23560E-03   -0.10732E-02  1949   0.164E-01    0.189E-01
RMM:   3    -0.118051651499E+04    0.53971E-03   -0.10427E-03  1635   0.859E-02    0.153E-01
RMM:   4    -0.118051580902E+04    0.70597E-03   -0.40464E-03  1986   0.992E-02    0.506E-02
RMM:   5    -0.118051584214E+04   -0.33120E-04   -0.19987E-04  1117   0.470E-02
   2 F= -.11882273E+04 E0= -.11882273E+04  d E =-.426749E-03  mag=    -0.0000
       N       E                     dE             d eps       ncg     rms          rms(c)
DAV:   1    -0.118051679539E+04   -0.98637E-03   -0.72207E-02  1908   0.429E-01    0.743E-02
RMM:   2    -0.118051682979E+04   -0.34401E-04   -0.12934E-03  1648   0.638E-02    0.632E-02
RMM:   3    -0.118051675178E+04    0.78016E-04   -0.16158E-04  1028   0.554E-02
   3 F= -.11882279E+04 E0= -.11882279E+04  d E =-.101782E-02  mag=     0.0000
       N       E                     dE             d eps       ncg     rms          rms(c)
DAV:   1    -0.118051623152E+04    0.59827E-03   -0.22401E-01  1872   0.785E-01    0.140E-01
RMM:   2    -0.118051652099E+04   -0.28947E-03   -0.55375E-03  1859   0.124E-01    0.127E-01
RMM:   3    -0.118051638664E+04    0.13435E-03   -0.37221E-04  1229   0.686E-02    0.109E-01
RMM:   4    -0.118051612665E+04    0.25999E-03   -0.14377E-03  1883   0.620E-02    0.438E-02
RMM:   5    -0.118051612935E+04   -0.27095E-05   -0.11000E-04  1048   0.386E-02
   4 F= -.11882272E+04 E0= -.11882272E+04  d E =0.733781E-03  mag=     0.0000
       N       E                     dE             d eps       ncg     rms          rms(c)
DAV:   1    -0.118051725732E+04   -0.11307E-02   -0.94448E-02  1872   0.508E-01    0.838E-02
RMM:   2    -0.118051736994E+04   -0.11263E-03   -0.22624E-03  1806   0.794E-02    0.751E-02
RMM:   3    -0.118051730755E+04    0.62400E-04   -0.14514E-04  1019   0.503E-02
   5 F= -.11882284E+04 E0= -.11882284E+04  d E =-.514280E-03  mag=    -0.0000
