       N       E                     dE             d eps       ncg     rms          rms(c)
DAV:   1     0.507615265645E+04    0.50762E+04   -0.17887E+05  1872   0.936E+02
DAV:   2    -0.156492611250E+02   -0.50918E+04   -0.46726E+04  2520   0.212E+02
DAV:   3    -0.120177401542E+04   -0.11861E+04   -0.11812E+04  2088   0.114E+02
DAV:   4    -0.125049383376E+04   -0.48720E+02   -0.48374E+02  2016   0.304E+01
DAV:   5    -0.125179973159E+04   -0.13059E+01   -0.12991E+01  2340   0.462E+00    0.738E+01
RMM:   6    -0.123177900719E+04    0.20021E+02   -0.27092E+01  1756   0.485E+00    0.596E+01
RMM:   7    -0.121245264168E+04    0.19326E+02   -0.15072E+01  1597   0.450E+00    0.444E+01
RMM:   8    -0.118563247194E+04    0.26820E+02   -0.45745E+01  1600   0.763E+00    0.272E+01
RMM:   9    -0.118080339821E+04    0.48291E+01   -0.22508E+01  1596   0.534E+00    0.176E+01
RMM:  10    -0.118243692451E+04   -0.16335E+01   -0.64596E+00  1632   0.299E+00    0.874E+00
RMM:  11    -0.118246961731E+04   -0.32693E-01   -0.45166E-01  1803   0.906E-01    0.707E+00
RMM:  12    -0.118168203950E+04    0.78758E+00   -0.15308E+00  1588   0.136E+00    0.274E+00
RMM:  13    -0.118160177264E+04    0.80267E-01   -0.28222E-01  1626   0.604E-01    0.117E+00
RMM:  14    -0.118158763027E+04    0.14142E-01   -0.92254E-02  1646   0.348E-01    0.560E-01
RMM:  15    -0.118158648397E+04    0.11463E-02   -0.14008E-02  1790   0.152E-01    0.253E-01
RMM:  16    -0.118158615571E+04    0.32826E-03   -0.25382E-03  1720   0.612E-02    0.181E-01
RMM:  17    -0.118158653979E+04   -0.38408E-03   -0.11140E-03  1610   0.399E-02    0.111E-01
RMM:  18    -0.118158658751E+04   -0.47728E-04   -0.60071E-04  1189   0.270E-02
   1 F= -.11889777E+04 E0= -.11889777E+04  d E =-.118898E+04  mag=    -1.0063
       N       E                     dE             d eps       ncg     rms          rms(c)
DAV:   1    -0.118158170537E+04    0.48344E-02   -0.64247E-01  1764   0.130E+00    0.430E-01
RMM:   2    -0.118158610500E+04   -0.43996E-02   -0.52659E-02  1862   0.267E-01    0.426E-01
RMM:   3    -0.118158617380E+04   -0.68797E-04   -0.32046E-03  1551   0.627E-02    0.496E-01
RMM:   4    -0.118158631014E+04   -0.13634E-03   -0.23658E-04  1161   0.192E-02    0.552E-01
RMM:   5    -0.118158572719E+04    0.58294E-03   -0.87783E-04  1582   0.339E-02    0.277E-01
RMM:   6    -0.118158556640E+04    0.16079E-03   -0.15553E-03  1593   0.459E-02    0.151E-01
RMM:   7    -0.118158556405E+04    0.23506E-05   -0.13123E-04  1074   0.159E-02
   2 F= -.11889775E+04 E0= -.11889775E+04  d E =0.267869E-03  mag=    -0.9993
       N       E                     dE             d eps       ncg     rms          rms(c)
DAV:   1    -0.118158636387E+04   -0.79747E-03   -0.19212E-01  1656   0.710E-01    0.265E-01
RMM:   2    -0.118158753935E+04   -0.11755E-02   -0.14990E-02  1843   0.143E-01    0.281E-01
RMM:   3    -0.118158756303E+04   -0.23677E-04   -0.87706E-04  1202   0.330E-02
   3 F= -.11889790E+04 E0= -.11889790E+04  d E =-.131686E-02  mag=    -0.9998
       N       E                     dE             d eps       ncg     rms          rms(c)
DAV:   1    -0.118158789438E+04   -0.35503E-03   -0.37993E-01  1656   0.987E-01    0.419E-01
RMM:   2    -0.118158769166E+04    0.20272E-03   -0.11039E-02  1646   0.153E-01    0.357E-01
RMM:   3    -0.118158626288E+04    0.14288E-02   -0.13509E-03  1668   0.466E-02    0.273E-01
RMM:   4    -0.118158513981E+04    0.11231E-02   -0.34889E-03  1585   0.668E-02    0.121E-01
RMM:   5    -0.118158516139E+04   -0.21582E-04   -0.94745E-04  1596   0.355E-02
   4 F= -.11889762E+04 E0= -.11889762E+04  d E =0.282568E-02  mag=    -1.0000
       N       E                     dE             d eps       ncg     rms          rms(c)
DAV:   1    -0.118158853855E+04   -0.33987E-02   -0.21327E-01  1620   0.740E-01    0.189E-01
RMM:   2    -0.118158853221E+04    0.63424E-05   -0.59881E-03  1652   0.113E-01    0.156E-01
RMM:   3    -0.118158812199E+04    0.41022E-03   -0.35498E-04  1262   0.275E-02    0.129E-01
RMM:   4    -0.118158762173E+04    0.50025E-03   -0.11791E-03  1578   0.395E-02    0.596E-02
RMM:   5    -0.118158758159E+04    0.40140E-04   -0.31562E-04  1180   0.222E-02
   5 F= -.11889790E+04 E0= -.11889790E+04  d E =0.883149E-04  mag=    -1.0000
