       N       E                     dE             d eps       ncg     rms          rms(c)
DAV:   1     0.495301974592E+04    0.49530E+04   -0.17798E+05  1872   0.925E+02
DAV:   2    -0.440689726457E+02   -0.49971E+04   -0.45837E+04  2520   0.213E+02
DAV:   3    -0.120066364163E+04   -0.11566E+04   -0.11490E+04  2088   0.112E+02
DAV:   4    -0.124900472282E+04   -0.48341E+02   -0.48095E+02  1980   0.299E+01
DAV:   5    -0.125027316326E+04   -0.12684E+01   -0.12653E+01  2304   0.469E+00    0.999E+01
RMM:   6    -0.125073124327E+04   -0.45808E+00   -0.21050E+02  1920   0.196E+01    0.100E+02
RMM:   7    -0.122712253619E+04    0.23609E+02   -0.10477E+01  1598   0.516E+00    0.740E+01
RMM:   8    -0.119605274301E+04    0.31070E+02   -0.35529E+01  1594   0.741E+00    0.354E+01
RMM:   9    -0.118589475199E+04    0.10158E+02   -0.72468E+00  1584   0.379E+00    0.299E+01
RMM:  10    -0.117107044036E+04    0.14824E+02   -0.29453E+01  1584   0.665E+00    0.195E+01
RMM:  11    -0.116910718982E+04    0.19633E+01   -0.11983E+01  1586   0.412E+00    0.120E+01
RMM:  12    -0.117016984035E+04   -0.10627E+01   -0.27218E+00  1595   0.251E+00    0.868E+00
RMM:  13    -0.116975637051E+04    0.41347E+00   -0.35814E-01  1645   0.937E-01    0.547E+00
RMM:  14    -0.116957133025E+04    0.18504E+00   -0.22536E-01  1591   0.586E-01    0.382E+00
RMM:  15    -0.116938874003E+04    0.18259E+00   -0.70422E-01  1584   0.942E-01    0.118E+00
RMM:  16    -0.116938312727E+04    0.56128E-02   -0.47368E-02  1593   0.348E-01    0.693E-01
RMM:  17    -0.116938081238E+04    0.23149E-02   -0.14347E-02  1610   0.150E-01    0.411E-01
RMM:  18    -0.116938095120E+04   -0.13882E-03   -0.10408E-02  1584   0.124E-01    0.286E-01
RMM:  19    -0.116938020657E+04    0.74463E-03   -0.23099E-03  1583   0.773E-02    0.174E-01
RMM:  20    -0.116938033034E+04   -0.12377E-03   -0.55208E-04  1251   0.265E-02    0.113E-01
RMM:  21    -0.116938039567E+04   -0.65330E-04   -0.31305E-04  1154   0.230E-02
   1 F= -.11764933E+04 E0= -.11764932E+04  d E =-.117649E+04  mag=     0.9979
       N       E                     dE             d eps       ncg     rms          rms(c)
DAV:   1    -0.116937742649E+04    0.29038E-02   -0.45334E-01  1836   0.154E+00    0.239E-01
RMM:   2    -0.116938011315E+04   -0.26867E-02   -0.32274E-02  1789   0.271E-01    0.199E-01
RMM:   3    -0.116937954543E+04    0.56772E-03   -0.14385E-03  1593   0.653E-02    0.181E-01
RMM:   4    -0.116937878247E+04    0.76295E-03   -0.13010E-03  1587   0.428E-02    0.103E-01
RMM:   5    -0.116937859339E+04    0.18909E-03   -0.72306E-04  1578   0.322E-02    0.554E-02
RMM:   6    -0.116937858667E+04    0.67155E-05   -0.94546E-05  1011   0.146E-02
   2 F= -.11764916E+04 E0= -.11764916E+04  d E =0.162751E-02  mag=     0.9998
       N       E                     dE             d eps       ncg     rms          rms(c)
DAV:   1    -0.116938060403E+04   -0.20106E-02   -0.18805E-01  1620   0.983E-01    0.152E-01
RMM:   2    -0.116938155883E+04   -0.95480E-03   -0.12224E-02  1763   0.168E-01    0.126E-01
RMM:   3    -0.116938128241E+04    0.27642E-03   -0.46187E-04  1202   0.374E-02    0.114E-01
RMM:   4    -0.116938094850E+04    0.33391E-03   -0.55168E-04  1508   0.297E-02    0.653E-02
RMM:   5    -0.116938085679E+04    0.91711E-04   -0.34819E-04  1215   0.240E-02
   3 F= -.11764938E+04 E0= -.11764938E+04  d E =-.525187E-03  mag=     1.0000
