       N       E                     dE             d eps       ncg     rms          rms(c)
DAV:   1     0.485835271322E+04    0.48584E+04   -0.17176E+05  1760   0.937E+02
DAV:   2    -0.511078835702E+02   -0.49095E+04   -0.44775E+04  2432   0.217E+02
DAV:   3    -0.120102250779E+04   -0.11499E+04   -0.11396E+04  2016   0.114E+02
DAV:   4    -0.125116388749E+04   -0.50141E+02   -0.49834E+02  1952   0.319E+01
DAV:   5    -0.125261234251E+04   -0.14485E+01   -0.14450E+01  2336   0.522E+00    0.763E+01
RMM:   6    -0.124867139604E+04    0.39409E+01   -0.98547E+01  1727   0.156E+01    0.818E+01
RMM:   7    -0.122484603543E+04    0.23825E+02   -0.13300E+01  1536   0.655E+00    0.524E+01
RMM:   8    -0.120676743909E+04    0.18079E+02   -0.12368E+01  1566   0.452E+00    0.410E+01
RMM:   9    -0.118395143090E+04    0.22816E+02   -0.29104E+01  1661   0.673E+00    0.265E+01
RMM:  10    -0.117360843084E+04    0.10343E+02   -0.20045E+01  1556   0.598E+00    0.182E+01
RMM:  11    -0.117399578523E+04   -0.38735E+00   -0.14766E+01  1623   0.540E+00    0.123E+01
RMM:  12    -0.117425008163E+04   -0.25430E+00   -0.19761E+00  1797   0.240E+00    0.102E+01
RMM:  13    -0.117384808215E+04    0.40200E+00   -0.56450E-01  1585   0.118E+00    0.597E+00
RMM:  14    -0.117374536750E+04    0.10271E+00   -0.45347E-01  1592   0.825E-01    0.342E+00
RMM:  15    -0.117354186552E+04    0.20350E+00   -0.69994E-01  1552   0.104E+00    0.183E+00
RMM:  16    -0.117355488901E+04   -0.13023E-01   -0.11113E-01  1661   0.544E-01    0.876E-01
RMM:  17    -0.117355708141E+04   -0.21924E-02   -0.16422E-02  1588   0.216E-01    0.514E-01
RMM:  18    -0.117355655050E+04    0.53092E-03   -0.51800E-03  1718   0.114E-01    0.349E-01
RMM:  19    -0.117355628635E+04    0.26415E-03   -0.12069E-03  1731   0.509E-02    0.300E-01
RMM:  20    -0.117355605940E+04    0.22694E-03   -0.90935E-04  1590   0.397E-02    0.173E-01
RMM:  21    -0.117355615530E+04   -0.95901E-04   -0.51011E-04  1632   0.286E-02    0.120E-01
RMM:  22    -0.117355614524E+04    0.10067E-04   -0.12008E-04  1645   0.145E-02    0.984E-02
RMM:  23    -0.117355610913E+04    0.36107E-04   -0.57182E-05  1564   0.103E-02    0.750E-02
RMM:  24    -0.117355608919E+04    0.19938E-04   -0.10596E-04  1661   0.124E-02    0.369E-02
RMM:  25    -0.117355609211E+04   -0.29136E-05   -0.94611E-06  1378   0.493E-03    0.330E-02
RMM:  26    -0.117355608943E+04    0.26785E-05   -0.60729E-06  1331   0.349E-03    0.178E-02
RMM:  27    -0.117355608742E+04    0.20111E-05   -0.36571E-06  1110   0.247E-03    0.145E-02
RMM:  28    -0.117355608690E+04    0.51232E-06   -0.69083E-07  1030   0.151E-03
   1 F= -.11806556E+04 E0= -.11806556E+04  d E =-.118066E+04  mag=     3.0003
       N       E                     dE             d eps       ncg     rms          rms(c)
DAV:   1    -0.117355528917E+04    0.79825E-03   -0.24179E-01  1728   0.791E-01    0.123E-01
RMM:   2    -0.117355578415E+04   -0.49498E-03   -0.62546E-03  1611   0.129E-01    0.131E-01
RMM:   3    -0.117355589625E+04   -0.11210E-03   -0.13863E-03  1869   0.555E-02    0.120E-01
RMM:   4    -0.117355584572E+04    0.50535E-04   -0.21016E-04  1812   0.208E-02    0.113E-01
RMM:   5    -0.117355574797E+04    0.97747E-04   -0.91576E-05  1569   0.125E-02    0.953E-02
RMM:   6    -0.117355568339E+04    0.64585E-04   -0.51606E-04  1536   0.270E-02    0.612E-02
RMM:   7    -0.117355569300E+04   -0.96118E-05   -0.13785E-04  1691   0.167E-02    0.524E-02
RMM:   8    -0.117355568077E+04    0.12225E-04   -0.16086E-05  1630   0.641E-03    0.434E-02
RMM:   9    -0.117355566716E+04    0.13609E-04   -0.27385E-05  1545   0.593E-03    0.298E-02
RMM:  10    -0.117355566616E+04    0.10046E-05   -0.13854E-05  1577   0.475E-03    0.216E-02
RMM:  11    -0.117355566643E+04   -0.27310E-06   -0.16786E-06  1044   0.291E-03
   2 F= -.11806557E+04 E0= -.11806557E+04  d E =-.103731E-04  mag=     3.0000
       N       E                     dE             d eps       ncg     rms          rms(c)
DAV:   1    -0.117355628447E+04   -0.61830E-03   -0.59446E-02  1696   0.391E-01    0.616E-02
RMM:   2    -0.117355636993E+04   -0.85465E-04   -0.12455E-03  1536   0.626E-02    0.611E-02
RMM:   3    -0.117355638874E+04   -0.18813E-04   -0.31020E-04  1846   0.281E-02    0.551E-02
RMM:   4    -0.117355637096E+04    0.17783E-04   -0.53459E-05  1710   0.106E-02    0.498E-02
RMM:   5    -0.117355634362E+04    0.27338E-04   -0.32673E-05  1557   0.754E-03    0.378E-02
RMM:   6    -0.117355632889E+04    0.14729E-04   -0.84483E-05  1536   0.113E-02    0.217E-02
RMM:   7    -0.117355632866E+04    0.23092E-06   -0.22186E-05  1643   0.694E-03    0.160E-02
RMM:   8    -0.117355632678E+04    0.18850E-05   -0.29434E-06  1084   0.320E-03    0.120E-02
RMM:   9    -0.117355632544E+04    0.13385E-05   -0.51763E-06  1323   0.277E-03    0.760E-03
RMM:  10    -0.117355632528E+04    0.16073E-06   -0.11343E-06  1020   0.191E-03
   3 F= -.11806561E+04 E0= -.11806561E+04  d E =-.455079E-03  mag=     3.0000
       N       E                     dE             d eps       ncg     rms          rms(c)
DAV:   1    -0.117355650311E+04   -0.17767E-03   -0.13756E-01  1760   0.577E-01    0.813E-02
RMM:   2    -0.117355667813E+04   -0.17502E-03   -0.23887E-03  1536   0.801E-02    0.802E-02
RMM:   3    -0.117355671132E+04   -0.33197E-04   -0.51660E-04  1733   0.357E-02    0.707E-02
RMM:   4    -0.117355668378E+04    0.27539E-04   -0.99859E-05  1669   0.153E-02    0.624E-02
RMM:   5    -0.117355664371E+04    0.40073E-04   -0.59468E-05  1544   0.108E-02    0.447E-02
RMM:   6    -0.117355663004E+04    0.13670E-04   -0.13781E-04  1540   0.150E-02    0.229E-02
RMM:   7    -0.117355663303E+04   -0.29871E-05   -0.25401E-05  1677   0.807E-03    0.172E-02
RMM:   8    -0.117355663289E+04    0.13858E-06   -0.46816E-06  1147   0.350E-03
   4 F= -.11806566E+04 E0= -.11806566E+04  d E =-.535994E-03  mag=     3.0000
