       N       E                     dE             d eps       ncg     rms          rms(c)
DAV:   1     0.488382611303E+04    0.48838E+04   -0.16989E+05  1836   0.906E+02
DAV:   2    -0.630451296761E+02   -0.49469E+04   -0.45072E+04  2520   0.207E+02
DAV:   3    -0.118947800275E+04   -0.11264E+04   -0.11204E+04  2160   0.109E+02
DAV:   4    -0.123393103127E+04   -0.44453E+02   -0.44220E+02  1980   0.285E+01
DAV:   5    -0.123509779801E+04   -0.11668E+01   -0.11649E+01  2376   0.442E+00    0.670E+01
RMM:   6    -0.121687590476E+04    0.18222E+02   -0.27284E+01  1584   0.525E+00    0.559E+01
RMM:   7    -0.120432845985E+04    0.12547E+02   -0.63872E+00  1584   0.281E+00    0.429E+01
RMM:   8    -0.118457884322E+04    0.19750E+02   -0.15617E+01  1584   0.455E+00    0.314E+01
RMM:   9    -0.116750386121E+04    0.17075E+02   -0.25622E+01  1584   0.576E+00    0.210E+01
RMM:  10    -0.116508962678E+04    0.24142E+01   -0.14395E+01  1584   0.432E+00    0.127E+01
RMM:  11    -0.116633297274E+04   -0.12433E+01   -0.42433E+00  1591   0.240E+00    0.730E+00
RMM:  12    -0.116583259250E+04    0.50038E+00   -0.14522E+00  1584   0.123E+00    0.402E+00
RMM:  13    -0.116547850011E+04    0.35409E+00   -0.50231E-01  1584   0.792E-01    0.128E+00
RMM:  14    -0.116544293188E+04    0.35568E-01   -0.63245E-02  1594   0.250E-01    0.716E-01
RMM:  15    -0.116544090363E+04    0.20283E-02   -0.14285E-02  1602   0.130E-01    0.362E-01
RMM:  16    -0.116544096132E+04   -0.57690E-04   -0.34867E-03  1601   0.672E-02    0.250E-01
RMM:  17    -0.116544061693E+04    0.34439E-03   -0.14095E-03  1529   0.406E-02    0.146E-01
RMM:  18    -0.116544062409E+04   -0.71617E-05   -0.72520E-04  1288   0.310E-02
   1 F= -.11725905E+04 E0= -.11725905E+04  d E =-.117259E+04  mag=     0.0062
       N       E                     dE             d eps       ncg     rms          rms(c)
DAV:   1    -0.116543406735E+04    0.65496E-02   -0.45361E+00  1656   0.229E+00    0.118E+00
RMM:   2    -0.116544020424E+04   -0.61369E-02   -0.93668E-02  1586   0.341E-01    0.116E+00
RMM:   3    -0.116543959674E+04    0.60749E-03   -0.41134E-03  1625   0.659E-02    0.108E+00
RMM:   4    -0.116543868322E+04    0.91353E-03   -0.10261E-02  1584   0.105E-01    0.364E-01
RMM:   5    -0.116543922755E+04   -0.54434E-03   -0.14983E-03  1584   0.424E-02    0.149E-01
RMM:   6    -0.116543870980E+04    0.51775E-03   -0.74524E-04  1420   0.265E-02    0.782E-02
RMM:   7    -0.116543862652E+04    0.83289E-04   -0.38818E-04  1285   0.196E-02
   2 F= -.11725886E+04 E0= -.11725886E+04  d E =0.180862E-02  mag=     0.0003
       N       E                     dE             d eps       ncg     rms          rms(c)
DAV:   1    -0.116544410830E+04   -0.53985E-02   -0.12531E+00  1620   0.122E+00    0.642E-01
RMM:   2    -0.116544588493E+04   -0.17766E-02   -0.27958E-02  1584   0.177E-01    0.635E-01
RMM:   3    -0.116544571415E+04    0.17078E-03   -0.11311E-03  1255   0.331E-02    0.599E-01
RMM:   4    -0.116544536991E+04    0.34424E-03   -0.27944E-03  1576   0.552E-02    0.202E-01
RMM:   5    -0.116544556072E+04   -0.19081E-03   -0.50705E-04  1214   0.247E-02    0.807E-02
RMM:   6    -0.116544541256E+04    0.14816E-03   -0.32133E-04  1195   0.184E-02    0.332E-02
RMM:   7    -0.116544539880E+04    0.13761E-04   -0.45480E-05   996   0.860E-03
   3 F= -.11725953E+04 E0= -.11725953E+04  d E =-.486414E-02  mag=     0.0000
       N       E                     dE             d eps       ncg     rms          rms(c)
DAV:   1    -0.116544664263E+04   -0.12301E-02   -0.40118E-01  1656   0.879E-01    0.194E-01
RMM:   2    -0.116544705415E+04   -0.41151E-03   -0.83513E-03  1584   0.120E-01    0.172E-01
RMM:   3    -0.116544683467E+04    0.21948E-03   -0.39322E-04  1190   0.256E-02    0.152E-01
RMM:   4    -0.116544645913E+04    0.37553E-03   -0.18706E-03  1584   0.467E-02    0.506E-02
RMM:   5    -0.116544646941E+04   -0.10275E-04   -0.10099E-04  1046   0.135E-02
   4 F= -.11725964E+04 E0= -.11725964E+04  d E =-.111296E-02  mag=     0.0000
       N       E                     dE             d eps       ncg     rms          rms(c)
DAV:   1    -0.116544651646E+04   -0.57326E-04   -0.10278E-02  1728   0.141E-01    0.294E-02
RMM:   2    -0.116544652672E+04   -0.10260E-04   -0.18230E-04  1032   0.178E-02
   5 F= -.11725965E+04 E0= -.11725965E+04  d E =-.116345E-02  mag=     0.0000
       N       E                     dE             d eps       ncg     rms          rms(c)
DAV:   1    -0.116544701811E+04   -0.50165E-03   -0.18773E-01  1728   0.567E-01    0.931E-02
RMM:   2    -0.116544728548E+04   -0.26738E-03   -0.34765E-03  1584   0.783E-02    0.790E-02
RMM:   3    -0.116544725842E+04    0.27065E-04   -0.15501E-04  1056   0.166E-02
   6 F= -.11725973E+04 E0= -.11725973E+04  d E =-.770519E-03  mag=    -0.0000
       N       E                     dE             d eps       ncg     rms          rms(c)
DAV:   1    -0.116544721153E+04    0.73951E-04   -0.58628E-02  1728   0.315E-01    0.753E-02
RMM:   2    -0.116544725302E+04   -0.41492E-04   -0.96647E-04  1342   0.405E-02
   7 F= -.11725973E+04 E0= -.11725973E+04  d E =-.787094E-03  mag=    -0.0000
