       N       E                     dE             d eps       ncg     rms          rms(c)
DAV:   1     0.507642506857E+04    0.50764E+04   -0.17085E+05  1720   0.991E+02
DAV:   2     0.927089745641E+02   -0.49837E+04   -0.45417E+04  2272   0.228E+02
DAV:   3    -0.116020019722E+04   -0.12529E+04   -0.12427E+04  1920   0.123E+02
DAV:   4    -0.122134858910E+04   -0.61148E+02   -0.60629E+02  1824   0.353E+01
DAV:   5    -0.122284817954E+04   -0.14996E+01   -0.14932E+01  1976   0.528E+00    0.605E+01
RMM:   6    -0.121031812335E+04    0.12530E+02   -0.80769E+00  1462   0.413E+00    0.499E+01
RMM:   7    -0.119089315096E+04    0.19425E+02   -0.17819E+01  1456   0.564E+00    0.390E+01
RMM:   8    -0.116901523340E+04    0.21878E+02   -0.25383E+01  1474   0.686E+00    0.269E+01
RMM:   9    -0.116093505214E+04    0.80802E+01   -0.18127E+01  1464   0.606E+00    0.207E+01
RMM:  10    -0.116127718453E+04   -0.34213E+00   -0.17464E+01  1485   0.585E+00    0.106E+01
RMM:  11    -0.116093147522E+04    0.34571E+00   -0.17583E+00  1472   0.246E+00    0.666E+00
RMM:  12    -0.116045529280E+04    0.47618E+00   -0.97931E-01  1459   0.136E+00    0.502E+00
RMM:  13    -0.116056099180E+04   -0.10570E+00   -0.45987E-01  1466   0.866E-01    0.609E+00
RMM:  14    -0.116037469060E+04    0.18630E+00   -0.18672E-01  1479   0.497E-01    0.191E+00
RMM:  15    -0.116038770345E+04   -0.13013E-01   -0.44294E-02  1505   0.272E-01    0.220E+00
RMM:  16    -0.116038453790E+04    0.31656E-02   -0.13664E-02  1358   0.156E-01    0.143E+00
RMM:  17    -0.116039307695E+04   -0.85390E-02   -0.12004E-02  1274   0.126E-01    0.130E+00
RMM:  18    -0.116040357591E+04   -0.10499E-01   -0.19919E-02  1274   0.142E-01    0.122E+00
RMM:  19    -0.116040109219E+04    0.24837E-02   -0.76503E-03  1071   0.887E-02    0.474E-01
RMM:  20    -0.116040088305E+04    0.20915E-03   -0.14185E-03   959   0.501E-02
   1 F= -.11674612E+04 E0= -.11674606E+04  d E =-.116746E+04  mag=     1.9667
