       N       E                     dE             d eps       ncg     rms          rms(c)
DAV:   1     0.507171172451E+04    0.50717E+04   -0.16580E+05  1728   0.924E+02
DAV:   2     0.530763320583E+01   -0.50664E+04   -0.45959E+04  2432   0.217E+02
DAV:   3    -0.117965739272E+04   -0.11850E+04   -0.11662E+04  2016   0.116E+02
DAV:   4    -0.123146260939E+04   -0.51805E+02   -0.51513E+02  1984   0.322E+01
DAV:   5    -0.123287469807E+04   -0.14121E+01   -0.14090E+01  2304   0.511E+00    0.759E+01
RMM:   6    -0.123909680443E+04   -0.62221E+01   -0.97775E+01  1673   0.138E+01    0.820E+01
RMM:   7    -0.121572024008E+04    0.23377E+02   -0.14239E+01  1538   0.627E+00    0.607E+01
RMM:   8    -0.119292976298E+04    0.22790E+02   -0.15158E+01  1576   0.472E+00    0.504E+01
RMM:   9    -0.116772743055E+04    0.25202E+02   -0.38341E+01  1670   0.805E+00    0.274E+01
RMM:  10    -0.116502398262E+04    0.27034E+01   -0.44564E+00  1669   0.350E+00    0.233E+01
RMM:  11    -0.116187003474E+04    0.31539E+01   -0.21355E+01  1776   0.562E+00    0.177E+01
RMM:  12    -0.116179965203E+04    0.70383E-01   -0.41046E+00  1647   0.310E+00    0.965E+00
RMM:  13    -0.116247984382E+04   -0.68019E+00   -0.14867E+00  1776   0.178E+00    0.904E+00
RMM:  14    -0.116268455614E+04   -0.20471E+00   -0.45043E-01  1565   0.845E-01    0.882E+00
RMM:  15    -0.116210223838E+04    0.58232E+00   -0.11599E+00  1605   0.143E+00    0.446E+00
RMM:  16    -0.116192506899E+04    0.17717E+00   -0.85418E-02  1577   0.526E-01    0.357E+00
RMM:  17    -0.116173165339E+04    0.19342E+00   -0.17003E-01  1655   0.433E-01    0.195E+00
RMM:  18    -0.116173661944E+04   -0.49661E-02   -0.31509E-02  1696   0.239E-01    0.174E+00
RMM:  19    -0.116173380088E+04    0.28186E-02   -0.11160E-02  1742   0.156E-01    0.139E+00
RMM:  20    -0.116171162157E+04    0.22179E-01   -0.31087E-02  1711   0.189E-01    0.635E-01
RMM:  21    -0.116171201843E+04   -0.39686E-03   -0.47103E-03  1860   0.902E-02    0.393E-01
RMM:  22    -0.116171368093E+04   -0.16625E-02   -0.16146E-03  1661   0.514E-02    0.352E-01
RMM:  23    -0.116171397383E+04   -0.29290E-03   -0.26453E-03  1675   0.614E-02    0.176E-01
RMM:  24    -0.116171502925E+04   -0.10554E-02   -0.49476E-04  1810   0.323E-02    0.136E-01
RMM:  25    -0.116171629502E+04   -0.12658E-02   -0.88601E-04  1617   0.393E-02    0.121E-01
RMM:  26    -0.116171687032E+04   -0.57529E-03   -0.24474E-04  1633   0.215E-02    0.117E-01
RMM:  27    -0.116171791211E+04   -0.10418E-02   -0.59836E-04  1673   0.309E-02    0.105E-01
RMM:  28    -0.116171888483E+04   -0.97272E-03   -0.51968E-04  1728   0.275E-02    0.103E-01
RMM:  29    -0.116171996502E+04   -0.10802E-02   -0.10017E-03  1815   0.358E-02    0.853E-02
RMM:  30    -0.116172061815E+04   -0.65313E-03   -0.62225E-04  1784   0.280E-02    0.833E-02
RMM:  31    -0.116172097810E+04   -0.35995E-03   -0.56526E-04  1804   0.273E-02    0.513E-02
RMM:  32    -0.116172117898E+04   -0.20088E-03   -0.54942E-04  1814   0.269E-02    0.440E-02
RMM:  33    -0.116172122915E+04   -0.50173E-04   -0.82923E-05  1759   0.110E-02    0.435E-02
RMM:  34    -0.116172122567E+04    0.34853E-05   -0.26545E-05  1573   0.719E-03    0.375E-02
RMM:  35    -0.116172121277E+04    0.12900E-04   -0.20972E-05  1366   0.563E-03    0.235E-02
RMM:  36    -0.116172121010E+04    0.26656E-05   -0.18293E-05  1328   0.540E-03    0.162E-02
RMM:  37    -0.116172121171E+04   -0.16042E-05   -0.40767E-06  1199   0.293E-03    0.108E-02
RMM:  38    -0.116172121113E+04    0.57894E-06   -0.14508E-06  1058   0.209E-03
   1 F= -.11617212E+04 E0= -.11617212E+04  d E =-.116172E+04  mag=     1.0004
       N       E                     dE             d eps       ncg     rms          rms(c)
DAV:   1    -0.116168176838E+04    0.39443E-01   -0.10842E+01  1696   0.471E+00    0.859E-01
RMM:   2    -0.116170425903E+04   -0.22491E-01   -0.23906E-01  1625   0.862E-01    0.842E-01
RMM:   3    -0.116171043996E+04   -0.61809E-02   -0.67421E-02  1885   0.365E-01    0.775E-01
RMM:   4    -0.116170892368E+04    0.15163E-02   -0.10442E-02  1779   0.133E-01    0.661E-01
RMM:   5    -0.116170617063E+04    0.27530E-02   -0.17050E-02  1559   0.155E-01    0.390E-01
RMM:   6    -0.116170655736E+04   -0.38673E-03   -0.70042E-03  1649   0.105E-01    0.294E-01
RMM:   7    -0.116170639333E+04    0.16404E-03   -0.88863E-04  1870   0.442E-02    0.239E-01
RMM:   8    -0.116170623862E+04    0.15471E-03   -0.13804E-03  1619   0.427E-02    0.102E-01
RMM:   9    -0.116170628450E+04   -0.45882E-04   -0.36603E-04  1892   0.245E-02    0.755E-02
RMM:  10    -0.116170628301E+04    0.14988E-05   -0.10050E-04  1580   0.132E-02    0.517E-02
RMM:  11    -0.116170633617E+04   -0.53162E-04   -0.12704E-04  1597   0.132E-02    0.264E-02
RMM:  12    -0.116170634440E+04   -0.82339E-05   -0.17327E-05  1557   0.636E-03    0.240E-02
RMM:  13    -0.116170637012E+04   -0.25720E-04   -0.23761E-05  1547   0.599E-03    0.205E-02
RMM:  14    -0.116170639125E+04   -0.21132E-04   -0.10593E-05  1361   0.454E-03    0.176E-02
RMM:  15    -0.116170642035E+04   -0.29101E-04   -0.21791E-05  1537   0.547E-03    0.175E-02
RMM:  16    -0.116170643873E+04   -0.18381E-04   -0.10483E-05  1336   0.442E-03    0.150E-02
RMM:  17    -0.116170648021E+04   -0.41481E-04   -0.64195E-05  1659   0.904E-03    0.140E-02
RMM:  18    -0.116170649728E+04   -0.17066E-04   -0.18238E-05  1440   0.516E-03    0.110E-02
RMM:  19    -0.116170650998E+04   -0.12695E-04   -0.38798E-05  1513   0.726E-03    0.692E-03
RMM:  20    -0.116170651526E+04   -0.52807E-05   -0.71538E-06  1166   0.343E-03    0.498E-03
RMM:  21    -0.116170651725E+04   -0.19972E-05   -0.39717E-06  1183   0.266E-03    0.322E-03
RMM:  22    -0.116170651788E+04   -0.62586E-06   -0.68836E-07  1028   0.171E-03
   2 F= -.11617065E+04 E0= -.11617065E+04  d E =0.146932E-01  mag=     1.0000
       N       E                     dE             d eps       ncg     rms          rms(c)
DAV:   1    -0.116172732044E+04   -0.20803E-01   -0.38219E+00  1728   0.278E+00    0.501E-01
RMM:   2    -0.116173360437E+04   -0.62839E-02   -0.70836E-02  1567   0.504E-01    0.508E-01
RMM:   3    -0.116173543190E+04   -0.18275E-02   -0.20572E-02  1817   0.219E-01    0.467E-01
RMM:   4    -0.116173500879E+04    0.42311E-03   -0.35880E-03  1804   0.807E-02    0.405E-01
RMM:   5    -0.116173401469E+04    0.99411E-03   -0.46395E-03  1563   0.823E-02    0.234E-01
RMM:   6    -0.116173421422E+04   -0.19953E-03   -0.31215E-03  1597   0.655E-02    0.168E-01
RMM:   7    -0.116173420643E+04    0.77900E-05   -0.29474E-04  1851   0.288E-02    0.134E-01
RMM:   8    -0.116173429555E+04   -0.89118E-04   -0.25197E-04  1604   0.194E-02    0.733E-02
RMM:   9    -0.116173426956E+04    0.25988E-04   -0.94537E-05  1727   0.127E-02    0.578E-02
RMM:  10    -0.116173425813E+04    0.11427E-04   -0.10032E-04  1628   0.121E-02    0.340E-02
RMM:  11    -0.116173427398E+04   -0.15845E-04   -0.21800E-05  1578   0.669E-03    0.219E-02
RMM:  12    -0.116173428059E+04   -0.66150E-05   -0.95207E-06  1406   0.431E-03    0.189E-02
RMM:  13    -0.116173429131E+04   -0.10717E-04   -0.87279E-06  1377   0.385E-03    0.132E-02
RMM:  14    -0.116173429641E+04   -0.50985E-05   -0.67177E-06  1301   0.341E-03    0.106E-02
RMM:  15    -0.116173430734E+04   -0.10927E-04   -0.10841E-05  1392   0.402E-03    0.105E-02
RMM:  16    -0.116173431450E+04   -0.71645E-05   -0.44373E-06  1098   0.304E-03    0.116E-02
RMM:  17    -0.116173432310E+04   -0.85987E-05   -0.12839E-05  1235   0.382E-03    0.945E-03
RMM:  18    -0.116173433003E+04   -0.69347E-05   -0.15404E-05  1214   0.393E-03    0.959E-03
RMM:  19    -0.116173433354E+04   -0.35013E-05   -0.81740E-06  1166   0.291E-03    0.803E-03
RMM:  20    -0.116173433535E+04   -0.18181E-05   -0.25658E-06  1084   0.198E-03    0.489E-03
RMM:  21    -0.116173433605E+04   -0.69967E-06   -0.60499E-07  1026   0.129E-03
   3 F= -.11617343E+04 E0= -.11617343E+04  d E =-.131249E-01  mag=     1.0000
       N       E                     dE             d eps       ncg     rms          rms(c)
DAV:   1    -0.116173216123E+04    0.21741E-02   -0.65445E+00  1632   0.297E+00    0.755E-01
RMM:   2    -0.116174078974E+04   -0.86285E-02   -0.71244E-02  1549   0.471E-01    0.596E-01
RMM:   3    -0.116174478515E+04   -0.39954E-02   -0.22499E-02  1736   0.212E-01    0.454E-01
RMM:   4    -0.116174553078E+04   -0.74564E-03   -0.44151E-03  1816   0.894E-02    0.334E-01
RMM:   5    -0.116174567036E+04   -0.13957E-03   -0.16511E-03  1630   0.462E-02    0.216E-01
RMM:   6    -0.116174628775E+04   -0.61739E-03   -0.20732E-03  1614   0.505E-02    0.742E-02
RMM:   7    -0.116174628720E+04    0.55355E-06   -0.19709E-04  1802   0.224E-02    0.555E-02
RMM:   8    -0.116174626751E+04    0.19686E-04   -0.15744E-04  1596   0.137E-02    0.337E-02
RMM:   9    -0.116174628396E+04   -0.16445E-04   -0.65501E-05  1642   0.956E-03    0.254E-02
RMM:  10    -0.116174629827E+04   -0.14316E-04   -0.15066E-05  1516   0.557E-03    0.195E-02
RMM:  11    -0.116174631744E+04   -0.19171E-04   -0.16223E-05  1506   0.503E-03    0.157E-02
RMM:  12    -0.116174632810E+04   -0.10656E-04   -0.68830E-06  1210   0.325E-03    0.140E-02
RMM:  13    -0.116174634352E+04   -0.15424E-04   -0.10238E-05  1319   0.364E-03    0.128E-02
RMM:  14    -0.116174635574E+04   -0.12216E-04   -0.68743E-06  1151   0.315E-03    0.112E-02
RMM:  15    -0.116174638103E+04   -0.25289E-04   -0.53150E-05  1614   0.741E-03    0.876E-03
RMM:  16    -0.116174639040E+04   -0.93757E-05   -0.97229E-06  1150   0.345E-03    0.700E-03
RMM:  17    -0.116174639628E+04   -0.58803E-05   -0.25229E-05  1401   0.518E-03    0.397E-03
RMM:  18    -0.116174639981E+04   -0.35287E-05   -0.31810E-06  1063   0.229E-03    0.310E-03
RMM:  19    -0.116174640052E+04   -0.70329E-06   -0.22885E-06  1075   0.178E-03
   4 F= -.11617464E+04 E0= -.11617464E+04  d E =-.120645E-01  mag=     1.0000
       N       E                     dE             d eps       ncg     rms          rms(c)
DAV:   1    -0.116174651179E+04   -0.11198E-03   -0.16931E-01  1664   0.475E-01    0.121E-01
RMM:   2    -0.116174668169E+04   -0.16989E-03   -0.18170E-03  1555   0.748E-02    0.985E-02
RMM:   3    -0.116174677366E+04   -0.91979E-04   -0.50982E-04  1733   0.327E-02    0.745E-02
RMM:   4    -0.116174681389E+04   -0.40227E-04   -0.13281E-04  1731   0.145E-02    0.514E-02
RMM:   5    -0.116174684166E+04   -0.27766E-04   -0.49900E-05  1577   0.841E-03    0.303E-02
RMM:   6    -0.116174687203E+04   -0.30376E-04   -0.41670E-05  1576   0.755E-03    0.113E-02
RMM:   7    -0.116174687428E+04   -0.22465E-05   -0.42618E-06  1153   0.357E-03    0.809E-03
RMM:   8    -0.116174687490E+04   -0.62081E-06   -0.50276E-06  1233   0.273E-03
   5 F= -.11617469E+04 E0= -.11617469E+04  d E =-.125388E-01  mag=     1.0000
       N       E                     dE             d eps       ncg     rms          rms(c)
DAV:   1    -0.116173798795E+04    0.88863E-02   -0.56930E+00  1664   0.268E+00    0.716E-01
RMM:   2    -0.116174530629E+04   -0.73183E-02   -0.58982E-02  1546   0.394E-01    0.553E-01
RMM:   3    -0.116174883345E+04   -0.35272E-02   -0.15871E-02  1786   0.182E-01    0.380E-01
RMM:   4    -0.116174884355E+04   -0.10104E-04   -0.25204E-03  1757   0.707E-02    0.290E-01
RMM:   5    -0.116174899809E+04   -0.15454E-03   -0.19295E-03  1631   0.530E-02    0.162E-01
RMM:   6    -0.116174940076E+04   -0.40266E-03   -0.12747E-03  1657   0.439E-02    0.659E-02
RMM:   7    -0.116174939031E+04    0.10441E-04   -0.12258E-04  1853   0.181E-02    0.559E-02
RMM:   8    -0.116174932747E+04    0.62840E-04   -0.27509E-04  1599   0.178E-02    0.238E-02
RMM:   9    -0.116174933498E+04   -0.75035E-05   -0.45448E-05  1829   0.928E-03    0.183E-02
RMM:  10    -0.116174933297E+04    0.20098E-05   -0.83379E-06  1424   0.442E-03    0.120E-02
RMM:  11    -0.116174933510E+04   -0.21335E-05   -0.11074E-05  1472   0.402E-03    0.656E-03
RMM:  12    -0.116174933494E+04    0.15745E-06   -0.24600E-06  1082   0.235E-03
   6 F= -.11617493E+04 E0= -.11617493E+04  d E =-.246004E-02  mag=     1.0000
       N       E                     dE             d eps       ncg     rms          rms(c)
DAV:   1    -0.116175056000E+04   -0.12249E-02   -0.10433E+00  1664   0.115E+00    0.307E-01
RMM:   2    -0.116175183704E+04   -0.12770E-02   -0.10889E-02  1546   0.173E-01    0.239E-01
RMM:   3    -0.116175242926E+04   -0.59223E-03   -0.29323E-03  1798   0.800E-02    0.170E-01
RMM:   4    -0.116175248434E+04   -0.55076E-04   -0.57822E-04  1718   0.326E-02    0.125E-01
RMM:   5    -0.116175255408E+04   -0.69735E-04   -0.33769E-04  1624   0.227E-02    0.709E-02
RMM:   6    -0.116175267596E+04   -0.12188E-03   -0.28972E-04  1648   0.207E-02    0.290E-02
RMM:   7    -0.116175266204E+04    0.13918E-04   -0.36388E-05  1567   0.965E-03    0.175E-02
RMM:   8    -0.116175266077E+04    0.12699E-05   -0.29088E-05  1551   0.641E-03    0.106E-02
RMM:   9    -0.116175266103E+04   -0.25753E-06   -0.45585E-06  1193   0.362E-03
   7 F= -.11617527E+04 E0= -.11617527E+04  d E =-.578613E-02  mag=     1.0000
       N       E                     dE             d eps       ncg     rms          rms(c)
DAV:   1    -0.116175194219E+04    0.71858E-03   -0.21341E+00  1728   0.176E+00    0.422E-01
RMM:   2    -0.116175450747E+04   -0.25653E-02   -0.20300E-02  1553   0.234E-01    0.333E-01
RMM:   3    -0.116175558388E+04   -0.10764E-02   -0.50345E-03  1766   0.105E-01    0.226E-01
RMM:   4    -0.116175565353E+04   -0.69643E-04   -0.10395E-03  1760   0.455E-02    0.163E-01
RMM:   5    -0.116175575609E+04   -0.10256E-03   -0.48926E-04  1636   0.292E-02    0.863E-02
RMM:   6    -0.116175590092E+04   -0.14484E-03   -0.40715E-04  1671   0.253E-02    0.354E-02
RMM:   7    -0.116175588282E+04    0.18103E-04   -0.37779E-05  1669   0.106E-02    0.266E-02
RMM:   8    -0.116175587467E+04    0.81487E-05   -0.64831E-05  1554   0.917E-03    0.134E-02
RMM:   9    -0.116175587717E+04   -0.24979E-05   -0.94957E-06  1555   0.487E-03    0.105E-02
RMM:  10    -0.116175587630E+04    0.87027E-06   -0.48293E-06  1331   0.319E-03
   8 F= -.11617559E+04 E0= -.11617559E+04  d E =-.321527E-02  mag=     1.0000
       N       E                     dE             d eps       ncg     rms          rms(c)
DAV:   1    -0.116175591496E+04   -0.37793E-04   -0.90021E-02  1728   0.361E-01    0.869E-02
RMM:   2    -0.116175600576E+04   -0.90799E-04   -0.85663E-04  1548   0.486E-02    0.683E-02
RMM:   3    -0.116175605356E+04   -0.47804E-04   -0.20497E-04  1789   0.223E-02    0.461E-02
RMM:   4    -0.116175605955E+04   -0.59891E-05   -0.52993E-05  1661   0.939E-03    0.349E-02
RMM:   5    -0.116175607120E+04   -0.11651E-04   -0.23048E-05  1571   0.654E-03    0.190E-02
RMM:   6    -0.116175608238E+04   -0.11180E-04   -0.18040E-05  1532   0.553E-03    0.709E-03
RMM:   7    -0.116175608262E+04   -0.23723E-06   -0.19936E-06  1056   0.284E-03
   9 F= -.11617561E+04 E0= -.11617561E+04  d E =-.342159E-02  mag=     1.0000
       N       E                     dE             d eps       ncg     rms          rms(c)
DAV:   1    -0.116175588597E+04    0.19641E-03   -0.18247E+00  1664   0.174E+00    0.365E-01
RMM:   2    -0.116175773623E+04   -0.18503E-02   -0.16932E-02  1555   0.215E-01    0.283E-01
RMM:   3    -0.116175861463E+04   -0.87839E-03   -0.42697E-03  1750   0.977E-02    0.194E-01
RMM:   4    -0.116175866509E+04   -0.50464E-04   -0.79669E-04  1784   0.407E-02    0.148E-01
RMM:   5    -0.116175874357E+04   -0.78482E-04   -0.38721E-04  1581   0.268E-02    0.775E-02
RMM:   6    -0.116175887851E+04   -0.13494E-03   -0.34003E-04  1614   0.239E-02    0.293E-02
RMM:   7    -0.116175886846E+04    0.10050E-04   -0.35628E-05  1742   0.104E-02    0.230E-02
RMM:   8    -0.116175886205E+04    0.64093E-05   -0.41257E-05  1544   0.754E-03    0.117E-02
RMM:   9    -0.116175886418E+04   -0.21277E-05   -0.98762E-06  1562   0.443E-03    0.844E-03
RMM:  10    -0.116175886374E+04    0.43720E-06   -0.22150E-06  1068   0.282E-03
  10 F= -.11617589E+04 E0= -.11617589E+04  d E =-.278112E-02  mag=     1.0000
       N       E                     dE             d eps       ncg     rms          rms(c)
DAV:   1    -0.116175887774E+04   -0.13562E-04   -0.38360E-02  1760   0.251E-01    0.530E-02
RMM:   2    -0.116175890452E+04   -0.26782E-04   -0.35548E-04  1557   0.310E-02    0.412E-02
RMM:   3    -0.116175892250E+04   -0.17981E-04   -0.80821E-05  1736   0.138E-02    0.270E-02
RMM:   4    -0.116175892661E+04   -0.41101E-05   -0.18365E-05  1579   0.604E-03    0.197E-02
RMM:   5    -0.116175893717E+04   -0.10552E-04   -0.11970E-05  1483   0.492E-03    0.675E-03
RMM:   6    -0.116175894033E+04   -0.31659E-05   -0.37793E-06  1137   0.305E-03    0.398E-03
RMM:   7    -0.116175894024E+04    0.88789E-07   -0.68751E-07  1024   0.178E-03
  11 F= -.11617589E+04 E0= -.11617589E+04  d E =-.285762E-02  mag=     1.0000
       N       E                     dE             d eps       ncg     rms          rms(c)
DAV:   1    -0.116175835450E+04    0.58583E-03   -0.15662E+00  1696   0.169E+00    0.322E-01
RMM:   2    -0.116175986397E+04   -0.15095E-02   -0.15350E-02  1558   0.212E-01    0.256E-01
RMM:   3    -0.116176045299E+04   -0.58902E-03   -0.38740E-03  1741   0.969E-02    0.181E-01
RMM:   4    -0.116176045024E+04    0.27557E-05   -0.82286E-04  1761   0.421E-02    0.134E-01
RMM:   5    -0.116176046625E+04   -0.16016E-04   -0.32361E-04  1593   0.255E-02    0.776E-02
RMM:   6    -0.116176060002E+04   -0.13377E-03   -0.30666E-04  1582   0.239E-02    0.263E-02
RMM:   7    -0.116176059829E+04    0.17331E-05   -0.42873E-05  1840   0.107E-02    0.208E-02
RMM:   8    -0.116176059220E+04    0.60858E-05   -0.36257E-05  1543   0.719E-03    0.112E-02
RMM:   9    -0.116176059569E+04   -0.34914E-05   -0.61427E-06  1353   0.392E-03    0.765E-03
RMM:  10    -0.116176059524E+04    0.45494E-06   -0.24142E-06  1076   0.247E-03
  12 F= -.11617606E+04 E0= -.11617606E+04  d E =-.165499E-02  mag=     1.0000
       N       E                     dE             d eps       ncg     rms          rms(c)
DAV:   1    -0.116176064292E+04   -0.47230E-04   -0.97118E-02  1760   0.421E-01    0.803E-02
RMM:   2    -0.116176071411E+04   -0.71189E-04   -0.94741E-04  1557   0.522E-02    0.639E-02
RMM:   3    -0.116176074856E+04   -0.34451E-04   -0.22286E-04  1746   0.235E-02    0.440E-02
RMM:   4    -0.116176075571E+04   -0.71524E-05   -0.52905E-05  1675   0.104E-02    0.312E-02
RMM:   5    -0.116176077180E+04   -0.16087E-04   -0.29551E-05  1571   0.773E-03    0.121E-02
RMM:   6    -0.116176077983E+04   -0.80288E-05   -0.11824E-05  1542   0.494E-03    0.640E-03
RMM:   7    -0.116176077945E+04    0.37826E-06   -0.16326E-06  1045   0.289E-03
  13 F= -.11617608E+04 E0= -.11617608E+04  d E =-.183921E-02  mag=     1.0000
       N       E                     dE             d eps       ncg     rms          rms(c)
DAV:   1    -0.116176100502E+04   -0.22519E-03   -0.97902E-01  1696   0.138E+00    0.242E-01
RMM:   2    -0.116176190465E+04   -0.89963E-03   -0.99750E-03  1564   0.174E-01    0.194E-01
RMM:   3    -0.116176219993E+04   -0.29528E-03   -0.23945E-03  1701   0.784E-02    0.136E-01
RMM:   4    -0.116176218244E+04    0.17494E-04   -0.57479E-04  1738   0.362E-02    0.969E-02
RMM:   5    -0.116176221510E+04   -0.32660E-04   -0.22120E-04  1621   0.211E-02    0.538E-02
RMM:   6    -0.116176230797E+04   -0.92875E-04   -0.15425E-04  1616   0.172E-02    0.213E-02
RMM:   7    -0.116176230451E+04    0.34617E-05   -0.23835E-05  1655   0.843E-03    0.146E-02
RMM:   8    -0.116176230351E+04    0.99598E-06   -0.28280E-05  1541   0.635E-03    0.767E-03
RMM:   9    -0.116176230449E+04   -0.98120E-06   -0.32115E-06  1122   0.323E-03
  14 F= -.11617623E+04 E0= -.11617623E+04  d E =-.152504E-02  mag=     1.0000
       N       E                     dE             d eps       ncg     rms          rms(c)
DAV:   1    -0.116176230389E+04   -0.37711E-06   -0.22809E-03  1888   0.663E-02    0.118E-02
RMM:   2    -0.116176230415E+04   -0.25941E-06   -0.21590E-05  1539   0.802E-03    0.937E-03
RMM:   3    -0.116176230529E+04   -0.11392E-05   -0.47175E-06  1196   0.365E-03    0.638E-03
RMM:   4    -0.116176230543E+04   -0.14232E-06   -0.10608E-06  1027   0.202E-03
  15 F= -.11617623E+04 E0= -.11617623E+04  d E =-.152598E-02  mag=     1.0000
       N       E                     dE             d eps       ncg     rms          rms(c)
DAV:   1    -0.116176247343E+04   -0.16814E-03   -0.92618E-01  1696   0.136E+00    0.224E-01
RMM:   2    -0.116176329179E+04   -0.81836E-03   -0.95661E-03  1563   0.170E-01    0.182E-01
RMM:   3    -0.116176351426E+04   -0.22247E-03   -0.22017E-03  1681   0.762E-02    0.125E-01
RMM:   4    -0.116176349439E+04    0.19872E-04   -0.58859E-04  1692   0.370E-02    0.838E-02
RMM:   5    -0.116176356274E+04   -0.68349E-04   -0.23252E-04  1707   0.216E-02    0.437E-02
RMM:   6    -0.116176363287E+04   -0.70131E-04   -0.10112E-04  1693   0.140E-02    0.213E-02
RMM:   7    -0.116176362815E+04    0.47219E-05   -0.25086E-05  1592   0.756E-03    0.117E-02
RMM:   8    -0.116176362860E+04   -0.45146E-06   -0.25513E-05  1558   0.614E-03    0.634E-03
RMM:   9    -0.116176362928E+04   -0.68198E-06   -0.26622E-06  1096   0.300E-03
  16 F= -.11617636E+04 E0= -.11617636E+04  d E =-.132385E-02  mag=     1.0000
       N       E                     dE             d eps       ncg     rms          rms(c)
DAV:   1    -0.116176362904E+04   -0.44100E-06   -0.63022E-06  1664   0.431E-03    0.296E-03
RMM:   2    -0.116176362929E+04   -0.25104E-06   -0.25225E-07   988   0.888E-04
  17 F= -.11617636E+04 E0= -.11617636E+04  d E =-.132386E-02  mag=     1.0000
       N       E                     dE             d eps       ncg     rms          rms(c)
DAV:   1    -0.116176435660E+04   -0.72756E-03   -0.60425E-01  1664   0.111E+00    0.175E-01
RMM:   2    -0.116176482114E+04   -0.46455E-03   -0.61709E-03  1562   0.137E-01    0.144E-01
RMM:   3    -0.116176494011E+04   -0.11897E-03   -0.13783E-03  1652   0.615E-02    0.987E-02
RMM:   4    -0.116176494052E+04   -0.40494E-06   -0.42682E-04  1667   0.310E-02    0.630E-02
RMM:   5    -0.116176500760E+04   -0.67078E-04   -0.16781E-04  1666   0.183E-02    0.304E-02
RMM:   6    -0.116176504378E+04   -0.36187E-04   -0.57454E-05  1758   0.109E-02    0.171E-02
RMM:   7    -0.116176503953E+04    0.42515E-05   -0.24975E-05  1558   0.651E-03    0.813E-03
RMM:   8    -0.116176504151E+04   -0.19751E-05   -0.10064E-05  1505   0.405E-03    0.478E-03
RMM:   9    -0.116176504204E+04   -0.53873E-06   -0.12698E-06  1042   0.229E-03
  18 F= -.11617650E+04 E0= -.11617650E+04  d E =-.141276E-02  mag=     1.0000
