       N       E                     dE             d eps       ncg     rms          rms(c)
DAV:   1     0.498381991632E+04    0.49838E+04   -0.17153E+05  1836   0.914E+02
DAV:   2    -0.291092143496E+02   -0.50129E+04   -0.45762E+04  2520   0.209E+02
DAV:   3    -0.118575051024E+04   -0.11566E+04   -0.11506E+04  2124   0.111E+02
DAV:   4    -0.123208573993E+04   -0.46335E+02   -0.46070E+02  2052   0.293E+01
DAV:   5    -0.123327395618E+04   -0.11882E+01   -0.11846E+01  2340   0.429E+00    0.677E+01
RMM:   6    -0.121704478825E+04    0.16229E+02   -0.29563E+01  1584   0.518E+00    0.686E+01
RMM:   7    -0.120782756281E+04    0.92172E+01   -0.26370E+00  1585   0.181E+00    0.486E+01
RMM:   8    -0.119041371435E+04    0.17414E+02   -0.11925E+01  1584   0.399E+00    0.371E+01
RMM:   9    -0.117614977757E+04    0.14264E+02   -0.13995E+01  1584   0.432E+00    0.286E+01
RMM:  10    -0.116538445628E+04    0.10765E+02   -0.18712E+01  1584   0.497E+00    0.193E+01
RMM:  11    -0.116600476323E+04   -0.62031E+00   -0.10756E+01  1584   0.375E+00    0.231E+01
RMM:  12    -0.116568769297E+04    0.31707E+00   -0.10742E+00  1616   0.114E+00    0.911E+00
RMM:  13    -0.116598359443E+04   -0.29590E+00   -0.32235E-01  1584   0.689E-01    0.673E+00
RMM:  14    -0.116541693183E+04    0.56666E+00   -0.19539E+00  1584   0.146E+00    0.372E+00
RMM:  15    -0.116524827923E+04    0.16865E+00   -0.21868E-01  1584   0.548E-01    0.260E+00
RMM:  16    -0.116521410863E+04    0.34171E-01   -0.56941E-02  1587   0.206E-01    0.204E+00
RMM:  17    -0.116519771283E+04    0.16396E-01   -0.25228E-02  1584   0.182E-01    0.184E+00
RMM:  18    -0.116518101832E+04    0.16695E-01   -0.60309E-03  1599   0.713E-02    0.162E+00
RMM:  19    -0.116517988389E+04    0.11344E-02   -0.52750E-04  1109   0.196E-02    0.160E+00
RMM:  20    -0.116517783569E+04    0.20482E-02   -0.21968E-04  1085   0.172E-02    0.157E+00
RMM:  21    -0.116517799767E+04   -0.16197E-03   -0.35620E-05  1010   0.897E-03    0.157E+00
RMM:  22    -0.116515635739E+04    0.21640E-01   -0.27595E-03  1430   0.385E-02    0.133E+00
RMM:  23    -0.116513826879E+04    0.18089E-01   -0.40162E-03  1556   0.474E-02    0.110E+00
RMM:  24    -0.116513591115E+04    0.23576E-02   -0.73268E-04  1083   0.127E-02    0.104E+00
RMM:  25    -0.116513559955E+04    0.31160E-03   -0.30464E-05   916   0.584E-03    0.103E+00
RMM:  26    -0.116513729026E+04   -0.16907E-02   -0.51887E-05   973   0.693E-03    0.105E+00
RMM:  27    -0.116513835500E+04   -0.10647E-02   -0.36767E-05   678   0.457E-03    0.108E+00
RMM:  28    -0.116514105871E+04   -0.27037E-02   -0.10179E-04   956   0.657E-03    0.112E+00
RMM:  29    -0.116512328438E+04    0.17774E-01   -0.43716E-03  1430   0.403E-02    0.774E-01
RMM:  30    -0.116512283005E+04    0.45433E-03   -0.40539E-04  1054   0.118E-02    0.749E-01
RMM:  31    -0.116512201949E+04    0.81056E-03   -0.70816E-05  1005   0.715E-03    0.720E-01
RMM:  32    -0.116511521289E+04    0.68066E-02   -0.22511E-03  1433   0.352E-02    0.485E-01
RMM:  33    -0.116511536662E+04   -0.15372E-03   -0.19257E-04  1030   0.109E-02    0.477E-01
RMM:  34    -0.116511517120E+04    0.19541E-03   -0.28170E-05   986   0.645E-03    0.467E-01
RMM:  35    -0.116511485036E+04    0.32084E-03   -0.65479E-04  1100   0.203E-02    0.409E-01
RMM:  36    -0.116511450128E+04    0.34909E-03   -0.17458E-04  1011   0.115E-02    0.370E-01
RMM:  37    -0.116511431586E+04    0.18542E-03   -0.69165E-05   974   0.694E-03    0.347E-01
RMM:  38    -0.116511339254E+04    0.92331E-03   -0.56495E-04  1031   0.133E-02    0.243E-01
RMM:  39    -0.116511298214E+04    0.41040E-03   -0.25661E-03  1205   0.293E-02    0.202E-01
RMM:  40    -0.116511308667E+04   -0.10453E-03   -0.31808E-04  1027   0.131E-02    0.209E-01
RMM:  41    -0.116511314016E+04   -0.53487E-04   -0.18624E-04  1010   0.983E-03
   1 F= -.11722432E+04 E0= -.11722419E+04  d E =-.117224E+04  mag=     0.0107
       N       E                     dE             d eps       ncg     rms          rms(c)
DAV:   1    -0.116510739773E+04    0.56889E-02   -0.32077E+00  1728   0.252E+00    0.858E-01
RMM:   2    -0.116511176676E+04   -0.43690E-02   -0.70520E-02  1588   0.339E-01    0.911E-01
RMM:   3    -0.116511139711E+04    0.36965E-03   -0.38521E-03  1616   0.690E-02    0.874E-01
RMM:   4    -0.116511036533E+04    0.10318E-02   -0.13594E-03  1580   0.449E-02    0.684E-01
RMM:   5    -0.116511271046E+04   -0.23451E-02   -0.71828E-03  1584   0.946E-02    0.628E-01
RMM:   6    -0.116510888417E+04    0.38263E-02   -0.23703E-03  1594   0.560E-02    0.239E-01
RMM:   7    -0.116511062840E+04   -0.17442E-02   -0.23324E-04  1088   0.217E-02    0.215E-01
RMM:   8    -0.116511093411E+04   -0.30571E-03   -0.13615E-04  1015   0.143E-02    0.242E-01
RMM:   9    -0.116511001872E+04    0.91539E-03   -0.82645E-04  1370   0.290E-02    0.119E-01
RMM:  10    -0.116511015742E+04   -0.13871E-03   -0.21459E-04  1031   0.165E-02    0.601E-02
RMM:  11    -0.116511033933E+04   -0.18191E-03   -0.10472E-04  1002   0.134E-02    0.400E-02
RMM:  12    -0.116511033554E+04    0.37922E-05   -0.97662E-05   996   0.121E-02
   2 F= -.11722416E+04 E0= -.11722410E+04  d E =0.157853E-02  mag=    -0.0003
       N       E                     dE             d eps       ncg     rms          rms(c)
DAV:   1    -0.116511535514E+04   -0.50158E-02   -0.93001E-01  1728   0.135E+00    0.424E-01
RMM:   2    -0.116511631994E+04   -0.96480E-03   -0.18300E-02  1584   0.177E-01    0.444E-01
RMM:   3    -0.116511627174E+04    0.48205E-04   -0.97782E-04  1312   0.344E-02
   3 F= -.11722469E+04 E0= -.11722461E+04  d E =-.371384E-02  mag=     0.0000
       N       E                     dE             d eps       ncg     rms          rms(c)
DAV:   1    -0.116511299216E+04    0.33278E-02   -0.12657E+00  1728   0.173E+00    0.509E-01
RMM:   2    -0.116511496253E+04   -0.19704E-02   -0.34036E-02  1584   0.270E-01    0.488E-01
RMM:   3    -0.116511409156E+04    0.87097E-03   -0.15584E-03  1583   0.514E-02    0.442E-01
RMM:   4    -0.116511128869E+04    0.28029E-02   -0.56162E-03  1584   0.849E-02    0.325E-01
RMM:   5    -0.116511144669E+04   -0.15800E-03   -0.24957E-03  1588   0.570E-02    0.383E-01
RMM:   6    -0.116511023113E+04    0.12156E-02   -0.24083E-03  1592   0.553E-02    0.173E-01
RMM:   7    -0.116511068138E+04   -0.45025E-03   -0.13785E-04  1045   0.180E-02    0.147E-01
RMM:   8    -0.116511048814E+04    0.19324E-03   -0.29782E-03  1576   0.533E-02    0.668E-02
RMM:   9    -0.116511052142E+04   -0.33276E-04   -0.10623E-04  1004   0.136E-02
   4 F= -.11722406E+04 E0= -.11722400E+04  d E =0.632743E-02  mag=     0.0000
       N       E                     dE             d eps       ncg     rms          rms(c)
DAV:   1    -0.116511806021E+04   -0.75721E-02   -0.65518E-01  1728   0.124E+00    0.316E-01
RMM:   2    -0.116511880771E+04   -0.74750E-03   -0.18384E-02  1584   0.198E-01    0.253E-01
RMM:   3    -0.116511830024E+04    0.50747E-03   -0.79083E-04  1360   0.377E-02    0.232E-01
RMM:   4    -0.116511777001E+04    0.53024E-03   -0.49932E-04  1448   0.274E-02    0.203E-01
RMM:   5    -0.116511778727E+04   -0.17268E-04   -0.45812E-04  1279   0.245E-02
   5 F= -.11722482E+04 E0= -.11722477E+04  d E =-.134688E-02  mag=     0.0000
       N       E                     dE             d eps       ncg     rms          rms(c)
DAV:   1    -0.116512148289E+04   -0.37129E-02   -0.69501E-01  1800   0.118E+00    0.425E-01
RMM:   2    -0.116512113333E+04    0.34955E-03   -0.13419E-02  1584   0.155E-01    0.416E-01
RMM:   3    -0.116512023451E+04    0.89883E-03   -0.63990E-04  1272   0.335E-02    0.376E-01
RMM:   4    -0.116511924140E+04    0.99310E-03   -0.10566E-03  1582   0.365E-02    0.400E-01
RMM:   5    -0.116511865761E+04    0.58379E-03   -0.10204E-04  1030   0.153E-02    0.364E-01
RMM:   6    -0.116511645213E+04    0.22055E-02   -0.34961E-03  1584   0.651E-02    0.277E-01
RMM:   7    -0.116511657875E+04   -0.12662E-03   -0.20419E-04  1058   0.188E-02    0.225E-01
RMM:   8    -0.116511633532E+04    0.24343E-03   -0.18455E-03  1584   0.460E-02    0.120E-01
RMM:   9    -0.116511645675E+04   -0.12144E-03   -0.37370E-04  1236   0.222E-02    0.743E-02
RMM:  10    -0.116511647095E+04   -0.14200E-04   -0.78504E-05  1003   0.113E-02
   6 F= -.11722477E+04 E0= -.11722472E+04  d E =0.520526E-03  mag=     0.0000
       N       E                     dE             d eps       ncg     rms          rms(c)
DAV:   1    -0.116511982988E+04   -0.33731E-02   -0.23844E-01  1800   0.696E-01    0.230E-01
RMM:   2    -0.116511935141E+04    0.47848E-03   -0.46728E-03  1584   0.945E-02    0.217E-01
RMM:   3    -0.116511901743E+04    0.33397E-03   -0.20651E-04  1084   0.199E-02    0.183E-01
RMM:   4    -0.116511816268E+04    0.85476E-03   -0.20598E-03  1584   0.504E-02    0.897E-02
RMM:   5    -0.116511814847E+04    0.14208E-04   -0.59351E-04  1524   0.275E-02
   7 F= -.11722489E+04 E0= -.11722483E+04  d E =-.686734E-03  mag=     0.0000
