       N       E                     dE             d eps       ncg     rms          rms(c)
DAV:   1     0.468294619751E+04    0.46829E+04   -0.17246E+05  1764   0.984E+02
DAV:   2    -0.463255400752E+02   -0.47293E+04   -0.43459E+04  2268   0.218E+02
DAV:   3    -0.118254238709E+04   -0.11362E+04   -0.11305E+04  1872   0.116E+02
DAV:   4    -0.123269810509E+04   -0.50156E+02   -0.49793E+02  1872   0.333E+01
DAV:   5    -0.123407466746E+04   -0.13766E+01   -0.13734E+01  2052   0.520E+00    0.625E+01
RMM:   6    -0.121854881558E+04    0.15526E+02   -0.92416E+00  1468   0.371E+00    0.506E+01
RMM:   7    -0.118179423755E+04    0.36755E+02   -0.11956E+02  1481   0.123E+01    0.406E+01
RMM:   8    -0.117569437961E+04    0.60999E+01   -0.37129E+00  1560   0.281E+00    0.297E+01
RMM:   9    -0.116810720373E+04    0.75872E+01   -0.94004E+00  1456   0.367E+00    0.209E+01
RMM:  10    -0.116600623746E+04    0.21010E+01   -0.28663E+01  1457   0.670E+00    0.132E+01
RMM:  11    -0.116658212481E+04   -0.57589E+00   -0.20220E+00  1501   0.223E+00    0.110E+01
RMM:  12    -0.116569468070E+04    0.88744E+00   -0.12432E+00  1459   0.133E+00    0.670E+00
RMM:  13    -0.116473566047E+04    0.95902E+00   -0.69744E-01  1465   0.107E+00    0.390E+00
RMM:  14    -0.116447965449E+04    0.25601E+00   -0.40068E-01  1545   0.715E-01    0.276E+00
RMM:  15    -0.116446380702E+04    0.15847E-01   -0.85455E-02  1578   0.352E-01    0.208E+00
RMM:  16    -0.116443577001E+04    0.28037E-01   -0.35604E-02  1615   0.183E-01    0.165E+00
RMM:  17    -0.116442260777E+04    0.13162E-01   -0.55950E-02  1565   0.238E-01    0.104E+00
RMM:  18    -0.116442467845E+04   -0.20707E-02   -0.10664E-02  1557   0.130E-01    0.572E-01
RMM:  19    -0.116442255899E+04    0.21195E-02   -0.83294E-03  1487   0.110E-01    0.216E-01
RMM:  20    -0.116442210149E+04    0.45750E-03   -0.13033E-03  1271   0.536E-02    0.115E-01
RMM:  21    -0.116442232972E+04   -0.22823E-03   -0.10990E-03  1219   0.345E-02    0.108E-01
RMM:  22    -0.116442223505E+04    0.94675E-04   -0.82259E-05   932   0.184E-02
   1 F= -.11714037E+04 E0= -.11714037E+04  d E =-.117140E+04  mag=    -0.0041
       N       E                     dE             d eps       ncg     rms          rms(c)
DAV:   1    -0.116441965329E+04    0.26764E-02   -0.38179E-01  1692   0.116E+00    0.247E-01
RMM:   2    -0.116442255328E+04   -0.29000E-02   -0.34684E-02  1534   0.186E-01    0.215E-01
RMM:   3    -0.116442237577E+04    0.17751E-03   -0.18897E-03  1135   0.527E-02    0.202E-01
RMM:   4    -0.116442212205E+04    0.25372E-03   -0.85638E-04  1386   0.363E-02    0.137E-01
RMM:   5    -0.116442211846E+04    0.35866E-05   -0.88594E-04  1439   0.391E-02
   2 F= -.11714037E+04 E0= -.11714037E+04  d E =0.323155E-04  mag=    -0.0006
       N       E                     dE             d eps       ncg     rms          rms(c)
DAV:   1    -0.116442263282E+04   -0.51078E-03   -0.10056E-01  1584   0.594E-01    0.126E-01
RMM:   2    -0.116442327926E+04   -0.64644E-03   -0.84219E-03  1491   0.913E-02    0.110E-01
RMM:   3    -0.116442315508E+04    0.12418E-03   -0.47165E-04   932   0.282E-02    0.103E-01
RMM:   4    -0.116442307114E+04    0.83943E-04   -0.19017E-04   921   0.196E-02
   3 F= -.11714046E+04 E0= -.11714046E+04  d E =-.876011E-03  mag=     0.0002
