       N       E                     dE             d eps       ncg     rms          rms(c)
DAV:   1     0.461619917931E+04    0.46162E+04   -0.17953E+05  1920   0.948E+02
DAV:   2    -0.746611686988E+02   -0.46909E+04   -0.42801E+04  2400   0.208E+02
DAV:   3    -0.119761571682E+04   -0.11230E+04   -0.11179E+04  2016   0.110E+02
DAV:   4    -0.124438198519E+04   -0.46766E+02   -0.46475E+02  1920   0.298E+01
DAV:   5    -0.124557403874E+04   -0.11921E+01   -0.11880E+01  2240   0.444E+00    0.722E+01
RMM:   6    -0.122856811350E+04    0.17006E+02   -0.10180E+01  1624   0.387E+00    0.551E+01
RMM:   7    -0.119912143579E+04    0.29447E+02   -0.44461E+01  1568   0.810E+00    0.348E+01
RMM:   8    -0.118424420856E+04    0.14877E+02   -0.22365E+01  1544   0.630E+00    0.254E+01
RMM:   9    -0.117830074480E+04    0.59435E+01   -0.14158E+01  1543   0.504E+00    0.174E+01
RMM:  10    -0.117940564899E+04   -0.11049E+01   -0.13340E+01  1571   0.483E+00    0.973E+00
RMM:  11    -0.117960007020E+04   -0.19442E+00   -0.30496E+00  1767   0.244E+00    0.843E+00
RMM:  12    -0.117911340054E+04    0.48667E+00   -0.55575E-01  1962   0.113E+00    0.658E+00
RMM:  13    -0.117847371050E+04    0.63969E+00   -0.84659E-01  1567   0.109E+00    0.316E+00
RMM:  14    -0.117844407002E+04    0.29640E-01   -0.43311E-01  1538   0.866E-01    0.159E+00
RMM:  15    -0.117842942773E+04    0.14642E-01   -0.74045E-02  1742   0.379E-01    0.944E-01
RMM:  16    -0.117842925510E+04    0.17262E-03   -0.19571E-02  1733   0.183E-01    0.795E-01
RMM:  17    -0.117842964793E+04   -0.39282E-03   -0.40293E-03  1572   0.898E-02    0.779E-01
RMM:  18    -0.117842888124E+04    0.76669E-03   -0.66651E-03  1600   0.994E-02    0.532E-01
RMM:  19    -0.117842886044E+04    0.20794E-04   -0.13005E-03  1860   0.483E-02    0.552E-01
RMM:  20    -0.117842692749E+04    0.19329E-02   -0.13295E-03  1549   0.447E-02    0.540E-01
RMM:  21    -0.117842312592E+04    0.38016E-02   -0.67375E-03  1846   0.888E-02    0.212E-01
RMM:  22    -0.117842309332E+04    0.32607E-04   -0.95726E-04  1588   0.393E-02    0.143E-01
RMM:  23    -0.117842324014E+04   -0.14682E-03   -0.11170E-03  1665   0.398E-02    0.107E-01
RMM:  24    -0.117842316441E+04    0.75728E-04   -0.32680E-04  1718   0.253E-02    0.601E-02
RMM:  25    -0.117842315098E+04    0.13433E-04   -0.13543E-04  1559   0.160E-02    0.377E-02
RMM:  26    -0.117842314103E+04    0.99471E-05   -0.39023E-05  1624   0.909E-03    0.264E-02
RMM:  27    -0.117842313063E+04    0.10399E-04   -0.24345E-05  1546   0.631E-03    0.108E-02
RMM:  28    -0.117842313248E+04   -0.18484E-05   -0.69278E-06  1472   0.357E-03    0.756E-03
RMM:  29    -0.117842313231E+04    0.17403E-06   -0.22219E-06  1090   0.206E-03
   1 F= -.11855778E+04 E0= -.11855774E+04  d E =-.118558E+04  mag=     0.0006
       N       E                     dE             d eps       ncg     rms          rms(c)
DAV:   1    -0.117754423017E+04    0.87890E+00   -0.99842E+01  1792   0.143E+01    0.733E+00
RMM:   2    -0.117818986397E+04   -0.64563E+00   -0.70990E+00  1725   0.289E+00    0.618E+00
RMM:   3    -0.117831631358E+04   -0.12645E+00   -0.17586E+00  1734   0.123E+00    0.422E+00
RMM:   4    -0.117834534223E+04   -0.29029E-01   -0.31476E-01  1740   0.614E-01    0.153E+00
RMM:   5    -0.117833481786E+04    0.10524E-01   -0.48699E-02  1804   0.270E-01    0.831E-01
RMM:   6    -0.117831348838E+04    0.21329E-01   -0.51076E-02  1585   0.215E-01    0.436E-01
RMM:   7    -0.117831211257E+04    0.13758E-02   -0.63591E-03  1713   0.966E-02    0.301E-01
RMM:   8    -0.117831153029E+04    0.58228E-03   -0.77641E-03  1670   0.966E-02    0.132E-01
RMM:   9    -0.117831147042E+04    0.59872E-04   -0.16669E-03  1819   0.478E-02    0.101E-01
RMM:  10    -0.117831136903E+04    0.10139E-03   -0.29347E-04  1685   0.210E-02    0.715E-02
RMM:  11    -0.117831138651E+04   -0.17485E-04   -0.58959E-04  1573   0.261E-02    0.520E-02
RMM:  12    -0.117831134450E+04    0.42012E-04   -0.10205E-04  1646   0.128E-02    0.243E-02
RMM:  13    -0.117831133316E+04    0.11341E-04   -0.86495E-05  1555   0.103E-02    0.137E-02
RMM:  14    -0.117831133052E+04    0.26386E-05   -0.14842E-05  1577   0.500E-03    0.560E-03
RMM:  15    -0.117831133078E+04   -0.25475E-06   -0.96545E-06  1425   0.359E-03
   2 F= -.11854682E+04 E0= -.11854682E+04  d E =0.109551E+00  mag=     0.0000
       N       E                     dE             d eps       ncg     rms          rms(c)
DAV:   1    -0.117833535869E+04   -0.24028E-01   -0.31720E+01  1696   0.799E+00    0.417E+00
RMM:   2    -0.117852015239E+04   -0.18479E+00   -0.20435E+00  1758   0.162E+00    0.377E+00
RMM:   3    -0.117854949312E+04   -0.29341E-01   -0.47561E-01  1707   0.658E-01    0.288E+00
RMM:   4    -0.117856899178E+04   -0.19499E-01   -0.12246E-01  1650   0.372E-01    0.810E-01
RMM:   5    -0.117855478152E+04    0.14210E-01   -0.19870E-02  1611   0.169E-01    0.428E-01
RMM:   6    -0.117855107479E+04    0.37067E-02   -0.15129E-02  1611   0.115E-01    0.249E-01
RMM:   7    -0.117855074163E+04    0.33315E-03   -0.20263E-03  1928   0.483E-02    0.205E-01
RMM:   8    -0.117854988823E+04    0.85341E-03   -0.38017E-03  1611   0.665E-02    0.685E-02
RMM:   9    -0.117854990347E+04   -0.15243E-04   -0.57170E-04  1943   0.298E-02    0.634E-02
RMM:  10    -0.117854989198E+04    0.11484E-04   -0.95341E-05  1648   0.121E-02    0.544E-02
RMM:  11    -0.117854988598E+04    0.60045E-05   -0.22214E-04  1580   0.151E-02    0.238E-02
RMM:  12    -0.117854987733E+04    0.86523E-05   -0.43511E-05  1630   0.747E-03    0.113E-02
RMM:  13    -0.117854987615E+04    0.11733E-05   -0.14962E-05  1472   0.464E-03    0.900E-03
RMM:  14    -0.117854987512E+04    0.10326E-05   -0.62618E-06  1226   0.277E-03    0.420E-03
RMM:  15    -0.117854987500E+04    0.12510E-06   -0.17701E-06  1075   0.162E-03
   3 F= -.11857053E+04 E0= -.11857053E+04  d E =-.127555E+00  mag=     0.0000
       N       E                     dE             d eps       ncg     rms          rms(c)
DAV:   1    -0.117849065829E+04    0.59217E-01   -0.28540E+01  1728   0.812E+00    0.159E+00
RMM:   2    -0.117856728119E+04   -0.76623E-01   -0.92143E-01  1770   0.133E+00    0.129E+00
RMM:   3    -0.117857579470E+04   -0.85135E-02   -0.22419E-01  1692   0.573E-01    0.969E-01
RMM:   4    -0.117857064988E+04    0.51448E-02   -0.43845E-02  1775   0.271E-01    0.580E-01
RMM:   5    -0.117857057644E+04    0.73435E-04   -0.12920E-02  1612   0.151E-01    0.351E-01
RMM:   6    -0.117857043746E+04    0.13899E-03   -0.47172E-03  1707   0.902E-02    0.163E-01
RMM:   7    -0.117857050595E+04   -0.68492E-04   -0.11271E-03  1971   0.439E-02    0.125E-01
RMM:   8    -0.117857022810E+04    0.27786E-03   -0.70913E-04  1570   0.308E-02    0.577E-02
RMM:   9    -0.117857023411E+04   -0.60116E-05   -0.34613E-04  1583   0.225E-02    0.333E-02
RMM:  10    -0.117857022510E+04    0.90037E-05   -0.53065E-05  1579   0.103E-02    0.279E-02
RMM:  11    -0.117857021648E+04    0.86186E-05   -0.83429E-05  1544   0.107E-02    0.102E-02
RMM:  12    -0.117857021557E+04    0.91284E-06   -0.10735E-05  1599   0.483E-03    0.760E-03
RMM:  13    -0.117857021501E+04    0.56257E-06   -0.48071E-06  1364   0.275E-03
   4 F= -.11857255E+04 E0= -.11857255E+04  d E =-.201225E-01  mag=     0.0000
       N       E                     dE             d eps       ncg     rms          rms(c)
DAV:   1    -0.117857921649E+04   -0.90009E-02   -0.49558E+00  1664   0.344E+00    0.652E-01
RMM:   2    -0.117859205896E+04   -0.12842E-01   -0.15788E-01  1778   0.548E-01    0.533E-01
RMM:   3    -0.117859335697E+04   -0.12980E-02   -0.38065E-02  1676   0.234E-01    0.400E-01
RMM:   4    -0.117859265052E+04    0.70645E-03   -0.95202E-03  1704   0.123E-01    0.214E-01
RMM:   5    -0.117859265260E+04   -0.20799E-05   -0.19032E-03  1721   0.599E-02    0.129E-01
RMM:   6    -0.117859270117E+04   -0.48574E-04   -0.80805E-04  1781   0.338E-02    0.677E-02
RMM:   7    -0.117859265511E+04    0.46066E-04   -0.12660E-04  1737   0.151E-02    0.429E-02
RMM:   8    -0.117859264287E+04    0.12242E-04   -0.20440E-04  1608   0.164E-02    0.182E-02
RMM:   9    -0.117859264015E+04    0.27189E-05   -0.23275E-05  1633   0.732E-03    0.149E-02
RMM:  10    -0.117859263542E+04    0.47227E-05   -0.16197E-05  1514   0.497E-03    0.662E-03
RMM:  11    -0.117859263528E+04    0.14866E-06   -0.55055E-06  1294   0.305E-03
   5 F= -.11857480E+04 E0= -.11857480E+04  d E =-.426232E-01  mag=     0.0000
       N       E                     dE             d eps       ncg     rms          rms(c)
DAV:   1    -0.117860672283E+04   -0.14087E-01   -0.13878E+01  1600   0.589E+00    0.108E+00
RMM:   2    -0.117863464411E+04   -0.27921E-01   -0.33330E-01  1762   0.861E-01    0.890E-01
RMM:   3    -0.117863821368E+04   -0.35696E-02   -0.89585E-02  1676   0.377E-01    0.648E-01
RMM:   4    -0.117863646966E+04    0.17440E-02   -0.17525E-02  1730   0.183E-01    0.331E-01
RMM:   5    -0.117863691009E+04   -0.44043E-03   -0.52021E-03  1650   0.101E-01    0.184E-01
RMM:   6    -0.117863669320E+04    0.21689E-03   -0.12847E-03  1910   0.505E-02    0.109E-01
RMM:   7    -0.117863667836E+04    0.14840E-04   -0.50728E-04  1843   0.268E-02    0.724E-02
RMM:   8    -0.117863662596E+04    0.52408E-04   -0.15885E-04  1588   0.159E-02    0.418E-02
RMM:   9    -0.117863661094E+04    0.15018E-04   -0.16088E-04  1584   0.159E-02    0.195E-02
RMM:  10    -0.117863660863E+04    0.23023E-05   -0.31055E-05  1675   0.798E-03    0.142E-02
RMM:  11    -0.117863660654E+04    0.20990E-05   -0.21215E-05  1536   0.570E-03    0.640E-03
RMM:  12    -0.117863660684E+04   -0.30686E-06   -0.44516E-06  1244   0.294E-03
   6 F= -.11857937E+04 E0= -.11857937E+04  d E =-.457021E-01  mag=    -0.0000
       N       E                     dE             d eps       ncg     rms          rms(c)
DAV:   1    -0.117863651027E+04    0.96261E-04   -0.19896E-01  1792   0.705E-01    0.126E-01
RMM:   2    -0.117863689232E+04   -0.38205E-03   -0.47429E-03  1768   0.102E-01    0.105E-01
RMM:   3    -0.117863694361E+04   -0.51284E-04   -0.12394E-03  1664   0.448E-02    0.780E-02
RMM:   4    -0.117863693820E+04    0.54086E-05   -0.34511E-04  1650   0.255E-02    0.317E-02
RMM:   5    -0.117863694661E+04   -0.84110E-05   -0.75910E-05  1862   0.120E-02    0.222E-02
RMM:   6    -0.117863694241E+04    0.42020E-05   -0.18071E-05  1650   0.549E-03    0.126E-02
RMM:   7    -0.117863694325E+04   -0.84724E-06   -0.55629E-06  1298   0.288E-03
   7 F= -.11857942E+04 E0= -.11857942E+04  d E =-.462416E-01  mag=    -0.0000
       N       E                     dE             d eps       ncg     rms          rms(c)
DAV:   1    -0.117864906786E+04   -0.12125E-01   -0.92071E+00  1536   0.468E+00    0.884E-01
RMM:   2    -0.117866022184E+04   -0.11154E-01   -0.14554E-01  1644   0.603E-01    0.810E-01
RMM:   3    -0.117866127310E+04   -0.10513E-02   -0.30382E-02  1756   0.260E-01    0.716E-01
RMM:   4    -0.117865957539E+04    0.16977E-02   -0.12531E-02  1586   0.154E-01    0.267E-01
RMM:   5    -0.117866013325E+04   -0.55786E-03   -0.40875E-03  1730   0.862E-02    0.141E-01
RMM:   6    -0.117865985383E+04    0.27941E-03   -0.58383E-04  1882   0.351E-02    0.981E-02
RMM:   7    -0.117865965340E+04    0.20043E-03   -0.71309E-04  1600   0.297E-02    0.487E-02
RMM:   8    -0.117865964461E+04    0.87900E-05   -0.12313E-04  1826   0.151E-02    0.304E-02
RMM:   9    -0.117865963332E+04    0.11291E-04   -0.15052E-04  1646   0.145E-02    0.150E-02
RMM:  10    -0.117865963112E+04    0.22034E-05   -0.22655E-05  1800   0.664E-03    0.114E-02
RMM:  11    -0.117865962905E+04    0.20663E-05   -0.12805E-05  1532   0.435E-03    0.595E-03
RMM:  12    -0.117865962903E+04    0.26841E-07   -0.35826E-06  1186   0.253E-03
   8 F= -.11858169E+04 E0= -.11858169E+04  d E =-.226405E-01  mag=     0.0000
       N       E                     dE             d eps       ncg     rms          rms(c)
DAV:   1    -0.117865962938E+04   -0.32910E-06   -0.11569E-03  1824   0.526E-02    0.100E-02
RMM:   2    -0.117865963089E+04   -0.15129E-05   -0.18845E-05  1594   0.681E-03    0.901E-03
RMM:   3    -0.117865963101E+04   -0.11256E-06   -0.36486E-06  1158   0.296E-03
   9 F= -.11858169E+04 E0= -.11858169E+04  d E =-.226429E-01  mag=     0.0000
       N       E                     dE             d eps       ncg     rms          rms(c)
DAV:   1    -0.117866374853E+04   -0.41176E-02   -0.77657E+00  1536   0.441E+00    0.696E-01
RMM:   2    -0.117867807559E+04   -0.14327E-01   -0.16447E-01  1748   0.633E-01    0.593E-01
RMM:   3    -0.117867995963E+04   -0.18840E-02   -0.37124E-02  1654   0.271E-01    0.463E-01
RMM:   4    -0.117867941050E+04    0.54914E-03   -0.11354E-02  1608   0.149E-01    0.148E-01
RMM:   5    -0.117867968758E+04   -0.27708E-03   -0.26502E-03  1957   0.715E-02    0.107E-01
RMM:   6    -0.117867949009E+04    0.19749E-03   -0.50987E-04  1712   0.287E-02    0.769E-02
RMM:   7    -0.117867947208E+04    0.18010E-04   -0.25660E-04  1668   0.197E-02    0.402E-02
RMM:   8    -0.117867946583E+04    0.62501E-05   -0.11944E-04  1760   0.137E-02    0.241E-02
RMM:   9    -0.117867945895E+04    0.68752E-05   -0.20786E-05  1658   0.655E-03    0.152E-02
RMM:  10    -0.117867945839E+04    0.56214E-06   -0.23254E-05  1544   0.577E-03    0.688E-03
RMM:  11    -0.117867945782E+04    0.57348E-06   -0.38793E-06  1282   0.288E-03
  10 F= -.11858372E+04 E0= -.11858372E+04  d E =-.203898E-01  mag=     0.0000
       N       E                     dE             d eps       ncg     rms          rms(c)
DAV:   1    -0.117867935958E+04    0.98813E-04   -0.23609E-01  1600   0.768E-01    0.121E-01
RMM:   2    -0.117867976241E+04   -0.40284E-03   -0.48050E-03  1750   0.110E-01    0.103E-01
RMM:   3    -0.117867981123E+04   -0.48814E-04   -0.10666E-03  1648   0.471E-02    0.795E-02
RMM:   4    -0.117867980569E+04    0.55413E-05   -0.36117E-04  1600   0.265E-02    0.242E-02
RMM:   5    -0.117867981266E+04   -0.69720E-05   -0.78716E-05  1957   0.124E-02    0.180E-02
RMM:   6    -0.117867980705E+04    0.56045E-05   -0.15741E-05  1660   0.498E-03    0.131E-02
RMM:   7    -0.117867980668E+04    0.37724E-06   -0.56620E-06  1442   0.307E-03
  11 F= -.11858377E+04 E0= -.11858377E+04  d E =-.208401E-01  mag=    -0.0000
       N       E                     dE             d eps       ncg     rms          rms(c)
DAV:   1    -0.117868468624E+04   -0.48792E-02   -0.47690E+00  1536   0.340E+00    0.443E-01
RMM:   2    -0.117869072613E+04   -0.60399E-02   -0.75508E-02  1668   0.438E-01    0.378E-01
RMM:   3    -0.117869098189E+04   -0.25576E-03   -0.14829E-02  1618   0.191E-01    0.312E-01
RMM:   4    -0.117869000970E+04    0.97219E-03   -0.53735E-03  1618   0.105E-01    0.152E-01
RMM:   5    -0.117869018837E+04   -0.17867E-03   -0.23555E-03  1620   0.665E-02    0.781E-02
RMM:   6    -0.117869011932E+04    0.69052E-04   -0.43284E-04  1780   0.305E-02    0.465E-02
RMM:   7    -0.117869013959E+04   -0.20270E-04   -0.13143E-04  1826   0.150E-02    0.299E-02
RMM:   8    -0.117869012271E+04    0.16885E-04   -0.50948E-05  1606   0.907E-03    0.172E-02
RMM:   9    -0.117869012345E+04   -0.74170E-06   -0.44646E-05  1548   0.836E-03    0.104E-02
RMM:  10    -0.117869012002E+04    0.34341E-05   -0.69749E-06  1508   0.381E-03    0.722E-03
RMM:  11    -0.117869011930E+04    0.71961E-06   -0.10827E-05  1516   0.383E-03    0.372E-03
RMM:  12    -0.117869011890E+04    0.39986E-06   -0.12885E-06  1018   0.172E-03
  12 F= -.11858480E+04 E0= -.11858480E+04  d E =-.103001E-01  mag=    -0.0000
       N       E                     dE             d eps       ncg     rms          rms(c)
DAV:   1    -0.117869012503E+04   -0.57379E-05   -0.55797E-03  1856   0.117E-01    0.151E-02
RMM:   2    -0.117869013168E+04   -0.66430E-05   -0.87154E-05  1656   0.149E-02    0.130E-02
RMM:   3    -0.117869013183E+04   -0.15426E-06   -0.16267E-05  1541   0.647E-03    0.107E-02
RMM:   4    -0.117869013134E+04    0.49179E-06   -0.93685E-06  1546   0.424E-03
  13 F= -.11858480E+04 E0= -.11858480E+04  d E =-.103123E-01  mag=    -0.0000
       N       E                     dE             d eps       ncg     rms          rms(c)
DAV:   1    -0.117869363572E+04   -0.35039E-02   -0.40370E+00  1536   0.307E+00    0.420E-01
RMM:   2    -0.117869836705E+04   -0.47313E-02   -0.59257E-02  1626   0.380E-01    0.360E-01
RMM:   3    -0.117869859603E+04   -0.22898E-03   -0.11292E-02  1652   0.165E-01    0.297E-01
RMM:   4    -0.117869793375E+04    0.66228E-03   -0.38779E-03  1636   0.895E-02    0.146E-01
RMM:   5    -0.117869811271E+04   -0.17896E-03   -0.16699E-03  1616   0.558E-02    0.710E-02
RMM:   6    -0.117869803878E+04    0.73929E-04   -0.34656E-04  1714   0.265E-02    0.384E-02
RMM:   7    -0.117869804924E+04   -0.10460E-04   -0.10422E-04  1741   0.134E-02    0.255E-02
RMM:   8    -0.117869803716E+04    0.12083E-04   -0.45506E-05  1586   0.857E-03    0.144E-02
RMM:   9    -0.117869803854E+04   -0.13874E-05   -0.31989E-05  1552   0.705E-03    0.968E-03
RMM:  10    -0.117869803579E+04    0.27575E-05   -0.50830E-06  1442   0.323E-03    0.633E-03
RMM:  11    -0.117869803530E+04    0.48974E-06   -0.73826E-06  1453   0.316E-03
  14 F= -.11858560E+04 E0= -.11858560E+04  d E =-.803594E-02  mag=     0.0000
       N       E                     dE             d eps       ncg     rms          rms(c)
DAV:   1    -0.117869803805E+04   -0.22669E-05   -0.97987E-04  1920   0.477E-02    0.700E-03
RMM:   2    -0.117869803919E+04   -0.11379E-05   -0.14854E-05  1576   0.589E-03    0.593E-03
RMM:   3    -0.117869803921E+04   -0.15789E-07   -0.26262E-06  1098   0.254E-03
  15 F= -.11858560E+04 E0= -.11858560E+04  d E =-.803778E-02  mag=    -0.0000
       N       E                     dE             d eps       ncg     rms          rms(c)
DAV:   1    -0.117870042778E+04   -0.23886E-02   -0.27554E+00  1536   0.248E+00    0.333E-01
RMM:   2    -0.117870355001E+04   -0.31222E-02   -0.38373E-02  1574   0.294E-01    0.288E-01
RMM:   3    -0.117870371383E+04   -0.16382E-03   -0.66745E-03  1686   0.125E-01    0.243E-01
RMM:   4    -0.117870340925E+04    0.30459E-03   -0.34859E-03  1582   0.813E-02    0.752E-02
RMM:   5    -0.117870349006E+04   -0.80816E-04   -0.65717E-04  1884   0.368E-02    0.542E-02
RMM:   6    -0.117870342721E+04    0.62854E-04   -0.16881E-04  1596   0.163E-02    0.323E-02
RMM:   7    -0.117870343732E+04   -0.10107E-04   -0.38123E-05  1868   0.828E-03    0.222E-02
RMM:   8    -0.117870342942E+04    0.79012E-05   -0.41992E-05  1542   0.773E-03    0.108E-02
RMM:   9    -0.117870343091E+04   -0.14969E-05   -0.12520E-05  1578   0.453E-03    0.723E-03
RMM:  10    -0.117870342987E+04    0.10416E-05   -0.26616E-06  1139   0.214E-03    0.454E-03
RMM:  11    -0.117870342975E+04    0.12412E-06   -0.22058E-06  1068   0.182E-03
  16 F= -.11858617E+04 E0= -.11858617E+04  d E =-.563623E-02  mag=     0.0000
       N       E                     dE             d eps       ncg     rms          rms(c)
DAV:   1    -0.117870342412E+04    0.57532E-05   -0.28762E-03  1856   0.802E-02    0.108E-02
RMM:   2    -0.117870342741E+04   -0.32950E-05   -0.41250E-05  1584   0.968E-03    0.939E-03
RMM:   3    -0.117870342763E+04   -0.21959E-06   -0.73717E-06  1314   0.418E-03
  17 F= -.11858617E+04 E0= -.11858617E+04  d E =-.564189E-02  mag=    -0.0000
       N       E                     dE             d eps       ncg     rms          rms(c)
DAV:   1    -0.117870601357E+04   -0.25862E-02   -0.28150E+00  1536   0.241E+00    0.339E-01
RMM:   2    -0.117870920532E+04   -0.31918E-02   -0.39511E-02  1588   0.285E-01    0.290E-01
RMM:   3    -0.117870926228E+04   -0.56962E-04   -0.60698E-03  1640   0.118E-01    0.243E-01
RMM:   4    -0.117870897689E+04    0.28539E-03   -0.45370E-03  1544   0.891E-02    0.570E-02
RMM:   5    -0.117870899311E+04   -0.16221E-04   -0.60338E-04  1818   0.375E-02    0.536E-02
RMM:   6    -0.117870893747E+04    0.55644E-04   -0.11403E-04  1592   0.148E-02    0.376E-02
RMM:   7    -0.117870894554E+04   -0.80696E-05   -0.66343E-05  1584   0.102E-02    0.188E-02
RMM:   8    -0.117870894106E+04    0.44845E-05   -0.32135E-05  1656   0.727E-03    0.100E-02
RMM:   9    -0.117870894177E+04   -0.71656E-06   -0.15682E-05  1552   0.504E-03    0.626E-03
RMM:  10    -0.117870894075E+04    0.10247E-05   -0.38697E-06  1334   0.265E-03    0.348E-03
RMM:  11    -0.117870894097E+04   -0.22096E-06   -0.21549E-06  1052   0.187E-03
  18 F= -.11858673E+04 E0= -.11858673E+04  d E =-.558899E-02  mag=     0.0000
       N       E                     dE             d eps       ncg     rms          rms(c)
DAV:   1    -0.117870898573E+04   -0.44979E-04   -0.17384E-01  1536   0.599E-01    0.836E-02
RMM:   2    -0.117870917685E+04   -0.19112E-03   -0.24319E-03  1588   0.710E-02    0.716E-02
RMM:   3    -0.117870917983E+04   -0.29816E-05   -0.37495E-04  1632   0.294E-02    0.600E-02
RMM:   4    -0.117870916940E+04    0.10425E-04   -0.27555E-04  1544   0.220E-02    0.143E-02
RMM:   5    -0.117870917141E+04   -0.20061E-05   -0.38713E-05  1824   0.939E-03    0.132E-02
RMM:   6    -0.117870916788E+04    0.35348E-05   -0.67070E-06  1508   0.364E-03    0.942E-03
RMM:   7    -0.117870916839E+04   -0.51592E-06   -0.47082E-06  1355   0.265E-03
  19 F= -.11858675E+04 E0= -.11858675E+04  d E =-.583603E-02  mag=    -0.0000
       N       E                     dE             d eps       ncg     rms          rms(c)
DAV:   1    -0.117871010476E+04   -0.93689E-03   -0.23649E+00  1536   0.222E+00    0.338E-01
RMM:   2    -0.117871300953E+04   -0.29048E-02   -0.35379E-02  1634   0.276E-01    0.293E-01
RMM:   3    -0.117871310234E+04   -0.92805E-04   -0.59011E-03  1606   0.115E-01    0.242E-01
RMM:   4    -0.117871296634E+04    0.13599E-03   -0.39729E-03  1546   0.832E-02    0.590E-02
RMM:   5    -0.117871296100E+04    0.53416E-05   -0.54374E-04  1896   0.352E-02    0.531E-02
RMM:   6    -0.117871289110E+04    0.69905E-04   -0.12354E-04  1580   0.146E-02    0.354E-02
RMM:   7    -0.117871288908E+04    0.20122E-05   -0.69764E-05  1598   0.100E-02    0.193E-02
RMM:   8    -0.117871288725E+04    0.18303E-05   -0.41517E-05  1719   0.793E-03    0.937E-03
RMM:   9    -0.117871288798E+04   -0.72778E-06   -0.11468E-05  1734   0.426E-03    0.658E-03
RMM:  10    -0.117871288700E+04    0.97683E-06   -0.26794E-06  1164   0.205E-03
  20 F= -.11858714E+04 E0= -.11858714E+04  d E =-.387376E-02  mag=    -0.0000
       N       E                     dE             d eps       ncg     rms          rms(c)
DAV:   1    -0.117871287757E+04    0.10407E-04   -0.13336E-02  1728   0.166E-01    0.254E-02
RMM:   2    -0.117871289348E+04   -0.15902E-04   -0.19971E-04  1636   0.206E-02    0.221E-02
RMM:   3    -0.117871289374E+04   -0.25940E-06   -0.32765E-05  1604   0.862E-03    0.183E-02
RMM:   4    -0.117871289390E+04   -0.16831E-06   -0.24701E-05  1538   0.658E-03    0.443E-03
RMM:   5    -0.117871289381E+04    0.91517E-07   -0.32288E-06  1162   0.275E-03
  21 F= -.11858714E+04 E0= -.11858714E+04  d E =-.389240E-02  mag=    -0.0000
       N       E                     dE             d eps       ncg     rms          rms(c)
DAV:   1    -0.117871338617E+04   -0.49227E-03   -0.14417E+00  1536   0.175E+00    0.242E-01
RMM:   2    -0.117871520789E+04   -0.18217E-02   -0.22146E-02  1670   0.220E-01    0.210E-01
RMM:   3    -0.117871533825E+04   -0.13037E-03   -0.38885E-03  1618   0.918E-02    0.176E-01
RMM:   4    -0.117871522123E+04    0.11702E-03   -0.19113E-03  1566   0.599E-02    0.475E-02
RMM:   5    -0.117871526502E+04   -0.43785E-04   -0.36008E-04  1956   0.271E-02    0.382E-02
RMM:   6    -0.117871523252E+04    0.32497E-04   -0.65664E-05  1630   0.105E-02    0.272E-02
RMM:   7    -0.117871523475E+04   -0.22227E-05   -0.35134E-05  1600   0.727E-03    0.146E-02
RMM:   8    -0.117871523194E+04    0.28100E-05   -0.22311E-05  1588   0.584E-03    0.790E-03
RMM:   9    -0.117871523202E+04   -0.82633E-07   -0.76704E-06  1576   0.347E-03
  22 F= -.11858738E+04 E0= -.11858738E+04  d E =-.234456E-02  mag=     0.0000
       N       E                     dE             d eps       ncg     rms          rms(c)
DAV:   1    -0.117871523118E+04    0.75786E-06   -0.24734E-04  1856   0.233E-02    0.430E-03
RMM:   2    -0.117871523160E+04   -0.41969E-06   -0.43048E-06  1200   0.321E-03
  23 F= -.11858738E+04 E0= -.11858738E+04  d E =-.234404E-02  mag=     0.0000
       N       E                     dE             d eps       ncg     rms          rms(c)
DAV:   1    -0.117871592177E+04   -0.69059E-03   -0.79272E-01  1536   0.133E+00    0.168E-01
RMM:   2    -0.117871686812E+04   -0.94635E-03   -0.11806E-02  1662   0.167E-01    0.146E-01
RMM:   3    -0.117871690507E+04   -0.36955E-04   -0.20383E-03  1608   0.702E-02    0.124E-01
RMM:   4    -0.117871680596E+04    0.99107E-04   -0.12326E-03  1560   0.476E-02    0.378E-02
RMM:   5    -0.117871683143E+04   -0.25465E-04   -0.23690E-04  1978   0.220E-02    0.321E-02
RMM:   6    -0.117871681073E+04    0.20703E-04   -0.37587E-05  1626   0.816E-03    0.239E-02
RMM:   7    -0.117871681281E+04   -0.20877E-05   -0.30783E-05  1564   0.654E-03    0.110E-02
RMM:   8    -0.117871681126E+04    0.15489E-05   -0.14150E-05  1618   0.470E-03    0.616E-03
RMM:   9    -0.117871681144E+04   -0.17216E-06   -0.60461E-06  1485   0.307E-03
  24 F= -.11858753E+04 E0= -.11858753E+04  d E =-.154565E-02  mag=     0.0000
       N       E                     dE             d eps       ncg     rms          rms(c)
DAV:   1    -0.117871681137E+04   -0.10765E-06   -0.63192E-05  1792   0.121E-02    0.311E-03
RMM:   2    -0.117871681151E+04   -0.13818E-06   -0.14824E-06  1046   0.192E-03
  25 F= -.11858753E+04 E0= -.11858753E+04  d E =-.154543E-02  mag=     0.0000
       N       E                     dE             d eps       ncg     rms          rms(c)
DAV:   1    -0.117871746043E+04   -0.64906E-03   -0.61108E-01  1536   0.118E+00    0.152E-01
RMM:   2    -0.117871812247E+04   -0.66205E-03   -0.86552E-03  1594   0.143E-01    0.134E-01
RMM:   3    -0.117871811646E+04    0.60132E-05   -0.14209E-03  1628   0.599E-02    0.114E-01
RMM:   4    -0.117871800772E+04    0.10874E-03   -0.10828E-03  1556   0.447E-02    0.328E-02
RMM:   5    -0.117871802115E+04   -0.13432E-04   -0.16608E-04  1880   0.192E-02    0.278E-02
RMM:   6    -0.117871800627E+04    0.14884E-04   -0.40535E-05  1556   0.823E-03    0.173E-02
RMM:   7    -0.117871801082E+04   -0.45509E-05   -0.12560E-05  1690   0.471E-03    0.101E-02
RMM:   8    -0.117871800894E+04    0.18745E-05   -0.84801E-06  1504   0.367E-03    0.466E-03
RMM:   9    -0.117871800906E+04   -0.11500E-06   -0.34493E-06  1208   0.239E-03
  26 F= -.11858764E+04 E0= -.11858764E+04  d E =-.112600E-02  mag=     0.0000
