       N       E                     dE             d eps       ncg     rms          rms(c)
DAV:   1     0.506779598243E+04    0.50678E+04   -0.17499E+05  1836   0.926E+02
DAV:   2    -0.317246024106E+02   -0.50995E+04   -0.46787E+04  2520   0.212E+02
DAV:   3    -0.119837409554E+04   -0.11666E+04   -0.11619E+04  2232   0.112E+02
DAV:   4    -0.124577951500E+04   -0.47405E+02   -0.47124E+02  2052   0.285E+01
DAV:   5    -0.124726560314E+04   -0.14861E+01   -0.14824E+01  2700   0.426E+00    0.633E+01
RMM:   6    -0.123400163491E+04    0.13264E+02   -0.74513E+00  1587   0.311E+00    0.516E+01
RMM:   7    -0.119137728006E+04    0.42624E+02   -0.71318E+01  1588   0.943E+00    0.287E+01
RMM:   8    -0.118169259238E+04    0.96847E+01   -0.37344E+01  1595   0.689E+00    0.149E+01
RMM:   9    -0.118199071261E+04   -0.29812E+00   -0.95940E+00  1594   0.358E+00    0.978E+00
RMM:  10    -0.118196602478E+04    0.24688E-01   -0.92595E-01  1643   0.112E+00    0.701E+00
RMM:  11    -0.118120363508E+04    0.76239E+00   -0.21469E+00  1586   0.159E+00    0.222E+00
RMM:  12    -0.118114935897E+04    0.54276E-01   -0.13746E-01  1593   0.442E-01    0.141E+00
RMM:  13    -0.118112986364E+04    0.19495E-01   -0.10686E-01  1632   0.309E-01    0.490E-01
RMM:  14    -0.118112866149E+04    0.12021E-02   -0.29499E-02  1609   0.194E-01    0.283E-01
RMM:  15    -0.118112730285E+04    0.13586E-02   -0.40752E-03  1609   0.694E-02    0.159E-01
RMM:  16    -0.118112740628E+04   -0.10343E-03   -0.12282E-03  1493   0.379E-02    0.934E-02
RMM:  17    -0.118112766183E+04   -0.25555E-03   -0.53962E-04  1447   0.292E-02    0.883E-02
RMM:  18    -0.118112760627E+04    0.55561E-04   -0.24515E-04  1139   0.183E-02
   1 F= -.11883245E+04 E0= -.11883197E+04  d E =-.118832E+04  mag=    -0.9925
       N       E                     dE             d eps       ncg     rms          rms(c)
DAV:   1    -0.118112775585E+04   -0.94016E-04   -0.20020E+00  1620   0.171E+00    0.587E-01
RMM:   2    -0.118112979378E+04   -0.20379E-02   -0.37234E-02  1636   0.219E-01    0.530E-01
RMM:   3    -0.118112888400E+04    0.90979E-03   -0.25507E-03  1652   0.493E-02    0.452E-01
RMM:   4    -0.118112982384E+04   -0.93984E-03   -0.52215E-03  1600   0.713E-02    0.190E-01
RMM:   5    -0.118112944154E+04    0.38230E-03   -0.60624E-04  1234   0.235E-02    0.702E-02
RMM:   6    -0.118112940560E+04    0.35934E-04   -0.21343E-04  1109   0.133E-02
   2 F= -.11883271E+04 E0= -.11883219E+04  d E =-.261656E-02  mag=    -0.9911
       N       E                     dE             d eps       ncg     rms          rms(c)
DAV:   1    -0.118113072385E+04   -0.12823E-02   -0.27610E-01  1620   0.631E-01    0.210E-01
RMM:   2    -0.118113088677E+04   -0.16292E-03   -0.45660E-03  1575   0.773E-02    0.188E-01
RMM:   3    -0.118113070121E+04    0.18556E-03   -0.28232E-04  1141   0.183E-02    0.157E-01
RMM:   4    -0.118113084529E+04   -0.14408E-03   -0.89304E-04  1469   0.302E-02    0.692E-02
RMM:   5    -0.118113079344E+04    0.51845E-04   -0.98359E-05  1053   0.108E-02
   3 F= -.11883282E+04 E0= -.11883231E+04  d E =-.369553E-02  mag=    -0.9911
       N       E                     dE             d eps       ncg     rms          rms(c)
DAV:   1    -0.118113018610E+04    0.65919E-03   -0.16776E+00  1584   0.155E+00    0.459E-01
RMM:   2    -0.118113171463E+04   -0.15285E-02   -0.29477E-02  1606   0.196E-01    0.398E-01
RMM:   3    -0.118113085936E+04    0.85526E-03   -0.15974E-03  1595   0.424E-02    0.315E-01
RMM:   4    -0.118113144979E+04   -0.59043E-03   -0.29513E-03  1612   0.567E-02    0.139E-01
RMM:   5    -0.118113135781E+04    0.91988E-04   -0.32482E-04  1158   0.180E-02
   4 F= -.11883298E+04 E0= -.11883246E+04  d E =-.164124E-02  mag=    -0.9908
       N       E                     dE             d eps       ncg     rms          rms(c)
DAV:   1    -0.118113231012E+04   -0.86033E-03   -0.23225E-01  1764   0.573E-01    0.174E-01
RMM:   2    -0.118113240754E+04   -0.97421E-04   -0.40981E-03  1551   0.702E-02    0.152E-01
RMM:   3    -0.118113220263E+04    0.20491E-03   -0.21401E-04  1108   0.178E-02    0.117E-01
RMM:   4    -0.118113230518E+04   -0.10255E-03   -0.72278E-04  1480   0.290E-02    0.522E-02
RMM:   5    -0.118113228936E+04    0.15825E-04   -0.45219E-05   998   0.859E-03
   5 F= -.11883304E+04 E0= -.11883252E+04  d E =-.216953E-02  mag=    -0.9911
       N       E                     dE             d eps       ncg     rms          rms(c)
DAV:   1    -0.118113238838E+04   -0.83198E-04   -0.69861E-01  1728   0.112E+00    0.242E-01
RMM:   2    -0.118113298243E+04   -0.59405E-03   -0.12616E-02  1600   0.144E-01    0.204E-01
RMM:   3    -0.118113264941E+04    0.33302E-03   -0.65522E-04  1304   0.297E-02    0.162E-01
RMM:   4    -0.118113279580E+04   -0.14639E-03   -0.13072E-03  1573   0.398E-02    0.626E-02
RMM:   5    -0.118113285816E+04   -0.62355E-04   -0.11631E-04  1074   0.129E-02
   6 F= -.11883315E+04 E0= -.11883261E+04  d E =-.111341E-02  mag=    -0.9904
       N       E                     dE             d eps       ncg     rms          rms(c)
DAV:   1    -0.118113312978E+04   -0.33398E-03   -0.46187E-02  1800   0.287E-01    0.644E-02
RMM:   2    -0.118113313354E+04   -0.37506E-05   -0.77735E-04  1225   0.354E-02
   7 F= -.11883316E+04 E0= -.11883263E+04  d E =-.124778E-02  mag=    -0.9906
       N       E                     dE             d eps       ncg     rms          rms(c)
DAV:   1    -0.118113338592E+04   -0.25614E-03   -0.41935E-01  1728   0.884E-01    0.152E-01
RMM:   2    -0.118113386341E+04   -0.47749E-03   -0.75066E-03  1584   0.112E-01    0.124E-01
RMM:   3    -0.118113371305E+04    0.15036E-03   -0.28931E-04  1194   0.216E-02    0.104E-01
RMM:   4    -0.118113381243E+04   -0.99383E-04   -0.41404E-04  1364   0.230E-02
   8 F= -.11883325E+04 E0= -.11883268E+04  d E =-.912195E-03  mag=    -0.9898
       N       E                     dE             d eps       ncg     rms          rms(c)
DAV:   1    -0.118113379857E+04   -0.85518E-04   -0.32513E-02  1800   0.246E-01    0.674E-02
RMM:   2    -0.118113377550E+04    0.23063E-04   -0.59189E-04  1185   0.325E-02
   9 F= -.11883326E+04 E0= -.11883266E+04  d E =-.941030E-03  mag=    -0.9894
