       N       E                     dE             d eps       ncg     rms          rms(c)
DAV:   1     0.470950251652E+04    0.47095E+04   -0.18000E+05  1888   0.954E+02
DAV:   2    -0.884320035892E+02   -0.47979E+04   -0.44088E+04  2496   0.214E+02
DAV:   3    -0.120248104765E+04   -0.11140E+04   -0.11069E+04  1952   0.110E+02
DAV:   4    -0.124929592673E+04   -0.46815E+02   -0.46499E+02  1952   0.297E+01
DAV:   5    -0.125051166897E+04   -0.12157E+01   -0.12122E+01  2240   0.448E+00    0.726E+01
RMM:   6    -0.123140705199E+04    0.19105E+02   -0.17089E+01  1575   0.476E+00    0.505E+01
RMM:   7    -0.121136971399E+04    0.20037E+02   -0.22106E+01  1542   0.565E+00    0.372E+01
RMM:   8    -0.118427934887E+04    0.27090E+02   -0.43170E+01  1571   0.841E+00    0.231E+01
RMM:   9    -0.118077308983E+04    0.35063E+01   -0.16031E+01  1540   0.555E+00    0.154E+01
RMM:  10    -0.118172933785E+04   -0.95625E+00   -0.71554E+00  1550   0.371E+00    0.802E+00
RMM:  11    -0.118183302432E+04   -0.10369E+00   -0.11413E+00  1639   0.175E+00    0.600E+00
RMM:  12    -0.118124700704E+04    0.58602E+00   -0.92406E-01  1537   0.132E+00    0.213E+00
RMM:  13    -0.118117396203E+04    0.73045E-01   -0.48364E-01  1537   0.920E-01    0.875E-01
RMM:  14    -0.118117439193E+04   -0.42990E-03   -0.55965E-02  1574   0.361E-01    0.543E-01
RMM:  15    -0.118117480610E+04   -0.41417E-03   -0.14926E-02  1694   0.174E-01    0.409E-01
RMM:  16    -0.118117472548E+04    0.80618E-04   -0.43847E-03  1634   0.941E-02    0.299E-01
RMM:  17    -0.118117501882E+04   -0.29334E-03   -0.23538E-03  1578   0.673E-02    0.171E-01
RMM:  18    -0.118117510230E+04   -0.83478E-04   -0.85681E-04  1601   0.380E-02    0.108E-01
RMM:  19    -0.118117524666E+04   -0.14436E-03   -0.31714E-04  1734   0.213E-02    0.980E-02
RMM:  20    -0.118117519389E+04    0.52771E-04   -0.28630E-04  1539   0.204E-02    0.658E-02
RMM:  21    -0.118117524141E+04   -0.47518E-04   -0.83004E-05  1571   0.112E-02    0.299E-02
RMM:  22    -0.118117523937E+04    0.20395E-05   -0.26930E-05  1653   0.651E-03    0.164E-02
RMM:  23    -0.118117523758E+04    0.17901E-05   -0.11963E-05  1467   0.379E-03    0.112E-02
RMM:  24    -0.118117523867E+04   -0.10942E-05   -0.30404E-06  1142   0.195E-03    0.774E-03
RMM:  25    -0.118117523682E+04    0.18521E-05   -0.14595E-06  1041   0.142E-03    0.441E-03
RMM:  26    -0.118117523401E+04    0.28073E-05   -0.91622E-07  1028   0.131E-03    0.569E-03
RMM:  27    -0.118117523373E+04    0.28520E-06   -0.40246E-07  1012   0.800E-04
   1 F= -.11883141E+04 E0= -.11883141E+04  d E =-.118831E+04  mag=     0.9999
       N       E                     dE             d eps       ncg     rms          rms(c)
DAV:   1    -0.118117188045E+04    0.33536E-02   -0.46003E-01  1696   0.124E+00    0.208E-01
RMM:   2    -0.118117324023E+04   -0.13598E-02   -0.16125E-02  1563   0.197E-01    0.206E-01
RMM:   3    -0.118117343488E+04   -0.19466E-03   -0.31029E-03  1705   0.790E-02    0.194E-01
RMM:   4    -0.118117324411E+04    0.19077E-03   -0.58178E-04  1731   0.345E-02    0.165E-01
RMM:   5    -0.118117308167E+04    0.16244E-03   -0.15690E-03  1562   0.472E-02    0.847E-02
RMM:   6    -0.118117312446E+04   -0.42792E-04   -0.38487E-04  1633   0.271E-02    0.711E-02
RMM:   7    -0.118117305797E+04    0.66491E-04   -0.66070E-05  1579   0.117E-02    0.444E-02
RMM:   8    -0.118117304340E+04    0.14571E-04   -0.11283E-04  1562   0.116E-02    0.202E-02
RMM:   9    -0.118117304250E+04    0.89802E-06   -0.30430E-05  1721   0.721E-03    0.131E-02
RMM:  10    -0.118117304181E+04    0.68975E-06   -0.20685E-05  1552   0.554E-03    0.792E-03
RMM:  11    -0.118117304091E+04    0.89840E-06   -0.40607E-06  1329   0.276E-03
   2 F= -.11883127E+04 E0= -.11883127E+04  d E =0.145058E-02  mag=     1.0000
       N       E                     dE             d eps       ncg     rms          rms(c)
DAV:   1    -0.118117522784E+04   -0.21860E-02   -0.19843E-01  1824   0.813E-01    0.138E-01
RMM:   2    -0.118117566356E+04   -0.43572E-03   -0.56574E-03  1550   0.124E-01    0.136E-01
RMM:   3    -0.118117569870E+04   -0.35141E-04   -0.95615E-04  1603   0.473E-02    0.126E-01
RMM:   4    -0.118117559181E+04    0.10689E-03   -0.25753E-04  1634   0.234E-02    0.978E-02
RMM:   5    -0.118117554964E+04    0.42168E-04   -0.57097E-04  1567   0.289E-02    0.481E-02
RMM:   6    -0.118117555747E+04   -0.78270E-05   -0.10636E-04  1769   0.149E-02    0.398E-02
RMM:   7    -0.118117553825E+04    0.19214E-04   -0.27081E-05  1537   0.677E-03    0.224E-02
RMM:   8    -0.118117553844E+04   -0.18340E-06   -0.17797E-05  1568   0.515E-03    0.123E-02
RMM:   9    -0.118117553710E+04    0.13380E-05   -0.12091E-05  1575   0.415E-03    0.732E-03
RMM:  10    -0.118117553724E+04   -0.14588E-06   -0.67736E-06  1470   0.322E-03
   3 F= -.11883147E+04 E0= -.11883147E+04  d E =-.558817E-03  mag=     1.0000
