       N       E                     dE             d eps       ncg     rms          rms(c)
DAV:   1     0.492440276569E+04    0.49244E+04   -0.17319E+05  1872   0.913E+02
DAV:   2    -0.329871326458E+02   -0.49574E+04   -0.45091E+04  2520   0.213E+02
DAV:   3    -0.118348096855E+04   -0.11505E+04   -0.11452E+04  2088   0.113E+02
DAV:   4    -0.123994307178E+04   -0.56462E+02   -0.56180E+02  2124   0.363E+01
DAV:   5    -0.124172902939E+04   -0.17860E+01   -0.17766E+01  2232   0.549E+00    0.709E+01
RMM:   6    -0.122743750491E+04    0.14292E+02   -0.86730E+00  1821   0.364E+00    0.577E+01
RMM:   7    -0.118560589464E+04    0.41832E+02   -0.87272E+01  1846   0.113E+01    0.351E+01
RMM:   8    -0.117968772071E+04    0.59182E+01   -0.94680E+00  1857   0.841E+00    0.252E+01
RMM:   9    -0.117646573913E+04    0.32220E+01   -0.28166E+01  1688   0.632E+00    0.162E+01
RMM:  10    -0.117687360043E+04   -0.40786E+00   -0.64012E+00  1770   0.702E+00    0.114E+01
RMM:  11    -0.117641694490E+04    0.45666E+00   -0.27082E+00  1943   0.213E+00    0.811E+00
RMM:  12    -0.117577683013E+04    0.64011E+00   -0.23007E+00  1807   0.241E+00    0.664E+00
RMM:  13    -0.117543712608E+04    0.33970E+00   -0.36742E-01  1916   0.962E-01    0.425E+00
RMM:  14    -0.117518190443E+04    0.25522E+00   -0.91064E-01  1724   0.123E+00    0.120E+00
RMM:  15    -0.117518276088E+04   -0.85645E-03   -0.11243E-01  1735   0.105E+00    0.124E+00
RMM:  16    -0.117518527758E+04   -0.25167E-02   -0.23240E-02  1936   0.261E-01    0.113E+00
RMM:  17    -0.117518512778E+04    0.14980E-03   -0.69580E-03  1781   0.144E-01    0.989E-01
RMM:  18    -0.117518548846E+04   -0.36068E-03   -0.22006E-03  1656   0.105E-01    0.809E-01
RMM:  19    -0.117518592044E+04   -0.43198E-03   -0.86396E-04  1515   0.712E-02    0.686E-01
RMM:  20    -0.117518588267E+04    0.37776E-04   -0.55321E-04  1417   0.612E-02
   1 F= -.11823153E+04 E0= -.11823088E+04  d E =-.118232E+04  mag=    -0.7973
       N       E                     dE             d eps       ncg     rms          rms(c)
DAV:   1    -0.117518521984E+04    0.70061E-03   -0.37535E-01  1764   0.100E+00    0.592E-01
RMM:   2    -0.117518616136E+04   -0.94152E-03   -0.13085E-02  1877   0.167E-01    0.522E-01
RMM:   3    -0.117518543355E+04    0.72781E-03   -0.19726E-03  1691   0.119E-01    0.363E-01
RMM:   4    -0.117518561740E+04   -0.18385E-03   -0.37248E-03  1788   0.890E-02    0.134E-01
RMM:   5    -0.117518544347E+04    0.17393E-03   -0.30424E-04  1214   0.627E-02    0.110E-01
RMM:   6    -0.117518539267E+04    0.50802E-04   -0.15396E-04  1100   0.178E-02
   2 F= -.11823147E+04 E0= -.11823086E+04  d E =0.599295E-03  mag=    -0.8062
       N       E                     dE             d eps       ncg     rms          rms(c)
DAV:   1    -0.117518679460E+04   -0.13511E-02   -0.14296E-01  1872   0.619E-01    0.148E-01
RMM:   2    -0.117518696177E+04   -0.16717E-03   -0.37114E-03  1795   0.966E-02    0.135E-01
RMM:   3    -0.117518676482E+04    0.19695E-03   -0.36086E-04  1271   0.684E-02    0.131E-01
RMM:   4    -0.117518663868E+04    0.12614E-03   -0.18641E-04  1102   0.243E-02    0.105E-01
RMM:   5    -0.117518649677E+04    0.14191E-03   -0.45882E-04  1431   0.356E-02    0.447E-02
RMM:   6    -0.117518650356E+04   -0.67895E-05   -0.14788E-04  1060   0.462E-02
   3 F= -.11823159E+04 E0= -.11823098E+04  d E =-.578026E-03  mag=    -0.8070
