       N       E                     dE             d eps       ncg     rms          rms(c)
DAV:   1     0.491179521832E+04    0.49118E+04   -0.17720E+05  1872   0.921E+02
DAV:   2    -0.513145977673E+02   -0.49631E+04   -0.45507E+04  2520   0.211E+02
DAV:   3    -0.119571546762E+04   -0.11444E+04   -0.11363E+04  2088   0.111E+02
DAV:   4    -0.124357747047E+04   -0.47862E+02   -0.47632E+02  2052   0.297E+01
DAV:   5    -0.124482098620E+04   -0.12435E+01   -0.12412E+01  2412   0.456E+00    0.975E+01
RMM:   6    -0.124093383906E+04    0.38871E+01   -0.19029E+02  1821   0.179E+01    0.987E+01
RMM:   7    -0.121600091999E+04    0.24933E+02   -0.96358E+00  1590   0.449E+00    0.690E+01
RMM:   8    -0.119753116576E+04    0.18470E+02   -0.18029E+01  1593   0.550E+00    0.452E+01
RMM:   9    -0.118671033424E+04    0.10821E+02   -0.59540E+00  1590   0.270E+00    0.365E+01
RMM:  10    -0.117718981258E+04    0.95205E+01   -0.76642E+00  1587   0.364E+00    0.304E+01
RMM:  11    -0.116541062689E+04    0.11779E+02   -0.17533E+01  1590   0.483E+00    0.207E+01
RMM:  12    -0.116277879709E+04    0.26318E+01   -0.14716E+01  1590   0.470E+00    0.124E+01
RMM:  13    -0.116334303558E+04   -0.56424E+00   -0.18373E+00  1605   0.167E+00    0.932E+00
RMM:  14    -0.116324451849E+04    0.98517E-01   -0.65676E-01  1655   0.999E-01    0.684E+00
RMM:  15    -0.116317372556E+04    0.70793E-01   -0.96292E-02  1588   0.367E-01    0.523E+00
RMM:  16    -0.116315190725E+04    0.21818E-01   -0.89236E-01  1584   0.127E+00    0.976E+00
RMM:  17    -0.116296351675E+04    0.18839E+00   -0.59787E-02  1637   0.317E-01    0.818E+00
RMM:  18    -0.116284063217E+04    0.12288E+00   -0.25110E-02  1595   0.140E-01    0.240E+00
RMM:  19    -0.116291001676E+04   -0.69385E-01   -0.37309E-03  1371   0.975E-02    0.235E+00
RMM:  20    -0.116294306867E+04   -0.33052E-01   -0.59933E-02  1589   0.294E-01    0.108E+00
RMM:  21    -0.116296479924E+04   -0.21731E-01   -0.39590E-02  1589   0.214E-01    0.108E+00
RMM:  22    -0.116296063801E+04    0.41612E-02   -0.21013E-02  1599   0.182E-01    0.864E-01
RMM:  23    -0.116296110249E+04   -0.46448E-03   -0.75151E-03  1616   0.103E-01    0.942E-01
RMM:  24    -0.116296367660E+04   -0.25741E-02   -0.19827E-03  1565   0.495E-02    0.854E-01
RMM:  25    -0.116296546721E+04   -0.17906E-02   -0.86748E-04  1192   0.314E-02    0.757E-01
RMM:  26    -0.116296635207E+04   -0.88486E-03   -0.14540E-03  1284   0.362E-02    0.592E-01
RMM:  27    -0.116296563569E+04    0.71638E-03   -0.37581E-04  1099   0.223E-02    0.552E-01
RMM:  28    -0.116296530558E+04    0.33011E-03   -0.26764E-04  1096   0.170E-02    0.482E-01
RMM:  29    -0.116296549500E+04   -0.18943E-03   -0.91289E-05  1038   0.115E-02    0.447E-01
RMM:  30    -0.116296549604E+04   -0.10384E-05   -0.51230E-05   968   0.868E-03
   1 F= -.11700286E+04 E0= -.11700271E+04  d E =-.117003E+04  mag=     3.0113
       N       E                     dE             d eps       ncg     rms          rms(c)
DAV:   1    -0.116296219285E+04    0.33022E-02   -0.32170E-01  1656   0.128E+00    0.417E-01
RMM:   2    -0.116296414036E+04   -0.19475E-02   -0.23830E-02  1708   0.205E-01    0.280E-01
RMM:   3    -0.116296424796E+04   -0.10760E-03   -0.14878E-03  1520   0.473E-02    0.237E-01
RMM:   4    -0.116296432147E+04   -0.73511E-04   -0.95326E-04  1429   0.369E-02
   2 F= -.11700277E+04 E0= -.11700261E+04  d E =0.890095E-03  mag=     2.9565
       N       E                     dE             d eps       ncg     rms          rms(c)
DAV:   1    -0.116296524767E+04   -0.99971E-03   -0.13772E-01  1656   0.825E-01    0.147E-01
RMM:   2    -0.116296610529E+04   -0.85763E-03   -0.88561E-03  1690   0.133E-01    0.110E-01
RMM:   3    -0.116296607326E+04    0.32027E-04   -0.32160E-04  1111   0.265E-02
   3 F= -.11700293E+04 E0= -.11700277E+04  d E =-.679414E-03  mag=     2.9643
