       N       E                     dE             d eps       ncg     rms          rms(c)
DAV:   1     0.479549600351E+04    0.47955E+04   -0.18094E+05  1888   0.960E+02
DAV:   2    -0.519368413262E+02   -0.48474E+04   -0.44436E+04  2400   0.215E+02
DAV:   3    -0.120244625967E+04   -0.11505E+04   -0.11445E+04  2048   0.113E+02
DAV:   4    -0.124984647051E+04   -0.47400E+02   -0.47076E+02  1920   0.300E+01
DAV:   5    -0.125104446413E+04   -0.11980E+01   -0.11948E+01  2304   0.444E+00    0.732E+01
RMM:   6    -0.123225177442E+04    0.18793E+02   -0.19278E+01  1605   0.536E+00    0.524E+01
RMM:   7    -0.121774957363E+04    0.14502E+02   -0.10844E+01  1536   0.445E+00    0.427E+01
RMM:   8    -0.119169469287E+04    0.26055E+02   -0.36745E+01  1631   0.780E+00    0.268E+01
RMM:   9    -0.118305689605E+04    0.86378E+01   -0.19239E+01  1537   0.601E+00    0.189E+01
RMM:  10    -0.118249359548E+04    0.56330E+00   -0.13022E+01  1543   0.490E+00    0.102E+01
RMM:  11    -0.118311252723E+04   -0.61893E+00   -0.26237E+00  1623   0.250E+00    0.717E+00
RMM:  12    -0.118268350784E+04    0.42902E+00   -0.55154E-01  1541   0.120E+00    0.381E+00
RMM:  13    -0.118245344183E+04    0.23007E+00   -0.11024E+00  1538   0.132E+00    0.115E+00
RMM:  14    -0.118244921120E+04    0.42306E-02   -0.87955E-02  1555   0.523E-01    0.705E-01
RMM:  15    -0.118244641512E+04    0.27961E-02   -0.21663E-02  1634   0.235E-01    0.457E-01
RMM:  16    -0.118244442593E+04    0.19892E-02   -0.14186E-02  1637   0.159E-01    0.239E-01
RMM:  17    -0.118244527497E+04   -0.84904E-03   -0.51905E-03  1685   0.102E-01    0.177E-01
RMM:  18    -0.118244515076E+04    0.12421E-03   -0.10266E-03  1682   0.477E-02    0.143E-01
RMM:  19    -0.118244513001E+04    0.20744E-04   -0.42994E-04  1607   0.293E-02    0.977E-02
RMM:  20    -0.118244522965E+04   -0.99641E-04   -0.20908E-04  1584   0.200E-02    0.631E-02
RMM:  21    -0.118244523444E+04   -0.47897E-05   -0.93125E-05  1625   0.132E-02    0.342E-02
RMM:  22    -0.118244523845E+04   -0.40127E-05   -0.28988E-05  1805   0.680E-03    0.260E-02
RMM:  23    -0.118244523847E+04   -0.12624E-07   -0.11573E-05  1564   0.416E-03    0.229E-02
RMM:  24    -0.118244523895E+04   -0.48357E-06   -0.24332E-05  1539   0.617E-03    0.765E-03
RMM:  25    -0.118244523894E+04    0.12893E-07   -0.45716E-06  1273   0.302E-03
   1 F= -.11895717E+04 E0= -.11895717E+04  d E =-.118957E+04  mag=     1.9997
       N       E                     dE             d eps       ncg     rms          rms(c)
DAV:   1    -0.118244335434E+04    0.18846E-02   -0.45787E-01  1632   0.128E+00    0.236E-01
RMM:   2    -0.118244476657E+04   -0.14122E-02   -0.16474E-02  1584   0.198E-01    0.220E-01
RMM:   3    -0.118244495028E+04   -0.18371E-03   -0.32484E-03  1712   0.793E-02    0.191E-01
RMM:   4    -0.118244482761E+04    0.12267E-03   -0.75455E-04  1629   0.391E-02    0.131E-01
RMM:   5    -0.118244482417E+04    0.34471E-05   -0.53262E-04  1575   0.304E-02    0.750E-02
RMM:   6    -0.118244483376E+04   -0.95904E-05   -0.13194E-04  2013   0.161E-02    0.619E-02
RMM:   7    -0.118244482545E+04    0.83055E-05   -0.38438E-05  1547   0.791E-03    0.368E-02
RMM:   8    -0.118244483343E+04   -0.79767E-05   -0.31883E-05  1559   0.698E-03    0.183E-02
RMM:   9    -0.118244483301E+04    0.41723E-06   -0.12896E-05  1657   0.466E-03    0.124E-02
RMM:  10    -0.118244483293E+04    0.84692E-07   -0.44768E-06  1300   0.273E-03
   2 F= -.11895722E+04 E0= -.11895722E+04  d E =-.450443E-03  mag=     2.0000
       N       E                     dE             d eps       ncg     rms          rms(c)
DAV:   1    -0.118244553747E+04   -0.70446E-03   -0.82829E-02  1792   0.543E-01    0.102E-01
RMM:   2    -0.118244575446E+04   -0.21699E-03   -0.26351E-03  1549   0.822E-02    0.935E-02
RMM:   3    -0.118244577916E+04   -0.24703E-04   -0.53754E-04  1612   0.317E-02    0.788E-02
RMM:   4    -0.118244576017E+04    0.18993E-04   -0.98950E-05  1679   0.145E-02    0.591E-02
RMM:   5    -0.118244575139E+04    0.87751E-05   -0.88372E-05  1563   0.123E-02    0.298E-02
RMM:   6    -0.118244575406E+04   -0.26677E-05   -0.29568E-05  1655   0.758E-03    0.216E-02
RMM:   7    -0.118244575229E+04    0.17704E-05   -0.60793E-06  1489   0.366E-03    0.130E-02
RMM:   8    -0.118244575242E+04   -0.12811E-06   -0.61108E-06  1462   0.299E-03
   3 F= -.11895727E+04 E0= -.11895727E+04  d E =-.100473E-02  mag=     2.0000
       N       E                     dE             d eps       ncg     rms          rms(c)
DAV:   1    -0.118244580135E+04   -0.49063E-04   -0.25221E-01  1792   0.838E-01    0.170E-01
RMM:   2    -0.118244613840E+04   -0.33704E-03   -0.52238E-03  1551   0.119E-01    0.157E-01
RMM:   3    -0.118244615635E+04   -0.17958E-04   -0.90015E-04  1582   0.471E-02    0.128E-01
RMM:   4    -0.118244612350E+04    0.32852E-04   -0.26667E-04  1597   0.247E-02    0.905E-02
RMM:   5    -0.118244612055E+04    0.29522E-05   -0.17835E-04  1559   0.186E-02    0.493E-02
RMM:   6    -0.118244613024E+04   -0.96932E-05   -0.51001E-05  1674   0.105E-02    0.354E-02
RMM:   7    -0.118244613786E+04   -0.76141E-05   -0.20154E-05  1581   0.641E-03    0.180E-02
RMM:   8    -0.118244613995E+04   -0.20898E-05   -0.68293E-06  1484   0.361E-03    0.114E-02
RMM:   9    -0.118244613994E+04    0.65338E-08   -0.32165E-06  1140   0.237E-03
   4 F= -.11895736E+04 E0= -.11895736E+04  d E =-.917890E-03  mag=     2.0000
       N       E                     dE             d eps       ncg     rms          rms(c)
DAV:   1    -0.118244611956E+04    0.20386E-04   -0.43090E-04  1760   0.346E-02    0.100E-02
RMM:   2    -0.118244612026E+04   -0.69776E-06   -0.93321E-06  1429   0.510E-03
   5 F= -.11895736E+04 E0= -.11895736E+04  d E =-.919813E-03  mag=     2.0000
       N       E                     dE             d eps       ncg     rms          rms(c)
DAV:   1    -0.118244612625E+04   -0.66865E-05   -0.24999E-01  1728   0.808E-01    0.159E-01
RMM:   2    -0.118244645650E+04   -0.33025E-03   -0.54268E-03  1548   0.112E-01    0.138E-01
RMM:   3    -0.118244650648E+04   -0.49979E-04   -0.89700E-04  1601   0.441E-02    0.107E-01
RMM:   4    -0.118244654058E+04   -0.34096E-04   -0.21388E-04  1723   0.210E-02    0.834E-02
RMM:   5    -0.118244656605E+04   -0.25474E-04   -0.10174E-04  1560   0.143E-02    0.470E-02
RMM:   6    -0.118244658856E+04   -0.22514E-04   -0.47314E-05  1560   0.963E-03    0.304E-02
RMM:   7    -0.118244660321E+04   -0.14647E-04   -0.17607E-05  1555   0.609E-03    0.130E-02
RMM:   8    -0.118244660487E+04   -0.16630E-05   -0.45099E-06  1317   0.310E-03    0.814E-03
RMM:   9    -0.118244660507E+04   -0.19440E-06   -0.20945E-06  1039   0.197E-03
   6 F= -.11895745E+04 E0= -.11895745E+04  d E =-.845657E-03  mag=     2.0000
       N       E                     dE             d eps       ncg     rms          rms(c)
DAV:   1    -0.118244652173E+04    0.83149E-04   -0.19499E-02  1728   0.226E-01    0.443E-02
RMM:   2    -0.118244654864E+04   -0.26917E-04   -0.42472E-04  1550   0.314E-02    0.383E-02
RMM:   3    -0.118244655308E+04   -0.44313E-05   -0.70702E-05  1604   0.124E-02    0.295E-02
RMM:   4    -0.118244655680E+04   -0.37291E-05   -0.16490E-05  1658   0.588E-03    0.232E-02
RMM:   5    -0.118244655967E+04   -0.28686E-05   -0.83248E-06  1497   0.403E-03    0.133E-02
RMM:   6    -0.118244656192E+04   -0.22475E-05   -0.36705E-06  1172   0.270E-03    0.853E-03
RMM:   7    -0.118244656341E+04   -0.14943E-05   -0.13704E-06  1038   0.168E-03    0.365E-03
RMM:   8    -0.118244656360E+04   -0.18658E-06   -0.30102E-07   996   0.875E-04
   7 F= -.11895745E+04 E0= -.11895745E+04  d E =-.904762E-03  mag=     2.0000
       N       E                     dE             d eps       ncg     rms          rms(c)
DAV:   1    -0.118244670357E+04   -0.14016E-03   -0.15801E-01  1664   0.586E-01    0.136E-01
RMM:   2    -0.118244689560E+04   -0.19203E-03   -0.34416E-03  1552   0.800E-02    0.112E-01
RMM:   3    -0.118244693481E+04   -0.39210E-04   -0.51603E-04  1612   0.311E-02    0.827E-02
RMM:   4    -0.118244697796E+04   -0.43148E-04   -0.10429E-04  1719   0.137E-02    0.641E-02
RMM:   5    -0.118244700839E+04   -0.30437E-04   -0.39362E-05  1546   0.878E-03    0.381E-02
RMM:   6    -0.118244702790E+04   -0.19505E-04   -0.22719E-05  1530   0.629E-03    0.227E-02
RMM:   7    -0.118244703853E+04   -0.10631E-04   -0.84574E-06  1249   0.381E-03    0.105E-02
RMM:   8    -0.118244704040E+04   -0.18697E-05   -0.17903E-06  1056   0.194E-03    0.565E-03
RMM:   9    -0.118244704056E+04   -0.15991E-06   -0.78931E-07  1017   0.124E-03
   8 F= -.11895753E+04 E0= -.11895753E+04  d E =-.766477E-03  mag=     2.0000
       N       E                     dE             d eps       ncg     rms          rms(c)
DAV:   1    -0.118244430337E+04    0.27370E-02   -0.14120E+00  1600   0.174E+00    0.417E-01
RMM:   2    -0.118244629026E+04   -0.19869E-02   -0.31370E-02  1550   0.240E-01    0.339E-01
RMM:   3    -0.118244664992E+04   -0.35966E-03   -0.46534E-03  1609   0.933E-02    0.247E-01
RMM:   4    -0.118244686827E+04   -0.21835E-03   -0.94110E-04  1744   0.410E-02    0.193E-01
RMM:   5    -0.118244701528E+04   -0.14701E-03   -0.35117E-04  1585   0.261E-02    0.114E-01
RMM:   6    -0.118244716502E+04   -0.14974E-03   -0.21283E-04  1571   0.190E-02    0.673E-02
RMM:   7    -0.118244725810E+04   -0.93077E-04   -0.73542E-05  1626   0.111E-02    0.316E-02
RMM:   8    -0.118244727355E+04   -0.15445E-04   -0.16460E-05  1537   0.572E-03    0.169E-02
RMM:   9    -0.118244727450E+04   -0.94839E-06   -0.74200E-06  1412   0.353E-03
   9 F= -.11895764E+04 E0= -.11895764E+04  d E =-.186213E-02  mag=     2.0000
       N       E                     dE             d eps       ncg     rms          rms(c)
DAV:   1    -0.118244747464E+04   -0.20109E-03   -0.45820E-02  1664   0.286E-01    0.875E-02
RMM:   2    -0.118244751421E+04   -0.39569E-04   -0.99887E-04  1552   0.395E-02    0.702E-02
RMM:   3    -0.118244752749E+04   -0.13276E-04   -0.13864E-04  1594   0.153E-02    0.498E-02
RMM:   4    -0.118244754714E+04   -0.19650E-04   -0.30489E-05  1623   0.687E-03    0.378E-02
RMM:   5    -0.118244756018E+04   -0.13044E-04   -0.99972E-06  1343   0.423E-03    0.229E-02
RMM:   6    -0.118244756696E+04   -0.67765E-05   -0.56848E-06  1165   0.293E-03    0.141E-02
RMM:   7    -0.118244757065E+04   -0.36956E-05   -0.24515E-06  1085   0.189E-03    0.664E-03
RMM:   8    -0.118244757140E+04   -0.74498E-06   -0.47134E-07  1011   0.100E-03
  10 F= -.11895768E+04 E0= -.11895768E+04  d E =-.449794E-03  mag=     2.0000
       N       E                     dE             d eps       ncg     rms          rms(c)
DAV:   1    -0.118244784027E+04   -0.26961E-03   -0.25544E-01  1600   0.679E-01    0.205E-01
RMM:   2    -0.118244806210E+04   -0.22183E-03   -0.55568E-03  1551   0.930E-02    0.162E-01
RMM:   3    -0.118244812719E+04   -0.65091E-04   -0.76928E-04  1592   0.359E-02    0.115E-01
RMM:   4    -0.118244820651E+04   -0.79323E-04   -0.15732E-04  1710   0.157E-02    0.883E-02
RMM:   5    -0.118244826596E+04   -0.59447E-04   -0.58533E-05  1553   0.102E-02    0.522E-02
RMM:   6    -0.118244830058E+04   -0.34626E-04   -0.34675E-05  1526   0.707E-03    0.317E-02
RMM:   7    -0.118244831849E+04   -0.17903E-04   -0.11543E-05  1278   0.422E-03    0.154E-02
RMM:   8    -0.118244832265E+04   -0.41625E-05   -0.26099E-06  1109   0.224E-03    0.879E-03
RMM:   9    -0.118244832298E+04   -0.33479E-06   -0.13954E-06  1041   0.147E-03
  11 F= -.11895780E+04 E0= -.11895780E+04  d E =-.156198E-02  mag=     2.0000
       N       E                     dE             d eps       ncg     rms          rms(c)
DAV:   1    -0.118244829033E+04    0.32314E-04   -0.10225E+00  1536   0.136E+00    0.422E-01
RMM:   2    -0.118244925785E+04   -0.96751E-03   -0.22324E-02  1550   0.190E-01    0.327E-01
RMM:   3    -0.118244951733E+04   -0.25949E-03   -0.31291E-03  1588   0.729E-02    0.231E-01
RMM:   4    -0.118244973560E+04   -0.21826E-03   -0.57455E-04  1730   0.314E-02    0.182E-01
RMM:   5    -0.118244989082E+04   -0.15522E-03   -0.26348E-04  1582   0.213E-02    0.104E-01
RMM:   6    -0.118245000616E+04   -0.11534E-03   -0.13456E-04  1563   0.143E-02    0.648E-02
RMM:   7    -0.118245008184E+04   -0.75681E-04   -0.50801E-05  1609   0.874E-03    0.306E-02
RMM:   8    -0.118245009819E+04   -0.16347E-04   -0.11085E-05  1439   0.466E-03    0.173E-02
RMM:   9    -0.118245009915E+04   -0.96094E-06   -0.53708E-06  1177   0.277E-03
  12 F= -.11895805E+04 E0= -.11895805E+04  d E =-.405555E-02  mag=     2.0000
       N       E                     dE             d eps       ncg     rms          rms(c)
DAV:   1    -0.118244802892E+04    0.20693E-02   -0.40928E+00  1568   0.276E+00    0.903E-01
RMM:   2    -0.118245207658E+04   -0.40477E-02   -0.93575E-02  1549   0.391E-01    0.657E-01
RMM:   3    -0.118245320683E+04   -0.11302E-02   -0.12852E-02  1589   0.148E-01    0.474E-01
RMM:   4    -0.118245377266E+04   -0.56583E-03   -0.22459E-03  1726   0.631E-02    0.384E-01
RMM:   5    -0.118245407437E+04   -0.30172E-03   -0.12436E-03  1571   0.460E-02    0.206E-01
RMM:   6    -0.118245432078E+04   -0.24641E-03   -0.48657E-04  1577   0.275E-02    0.135E-01
RMM:   7    -0.118245461563E+04   -0.29485E-03   -0.20031E-04  1639   0.177E-02    0.632E-02
RMM:   8    -0.118245469015E+04   -0.74527E-04   -0.56107E-05  1577   0.101E-02    0.372E-02
RMM:   9    -0.118245469268E+04   -0.25268E-05   -0.19282E-05  1529   0.530E-03    0.272E-02
RMM:  10    -0.118245469344E+04   -0.76066E-06   -0.10268E-05  1284   0.349E-03    0.192E-02
RMM:  11    -0.118245469493E+04   -0.14906E-05   -0.42937E-06  1172   0.248E-03    0.981E-03
RMM:  12    -0.118245469567E+04   -0.73919E-06   -0.21310E-06  1084   0.171E-03
  13 F= -.11895865E+04 E0= -.11895865E+04  d E =-.100708E-01  mag=     2.0000
       N       E                     dE             d eps       ncg     rms          rms(c)
DAV:   1    -0.118244790683E+04    0.67881E-02   -0.16446E+01  1568   0.553E+00    0.210E+00
RMM:   2    -0.118245448562E+04   -0.65788E-02   -0.36546E-01  1547   0.785E-01    0.131E+00
RMM:   3    -0.118246106596E+04   -0.65803E-02   -0.52385E-02  1590   0.297E-01    0.102E+00
RMM:   4    -0.118246283292E+04   -0.17670E-02   -0.87454E-03  1676   0.129E-01    0.823E-01
RMM:   5    -0.118246294897E+04   -0.11604E-03   -0.69887E-03  1583   0.104E-01    0.419E-01
RMM:   6    -0.118246355948E+04   -0.61051E-03   -0.16030E-03  1605   0.518E-02    0.285E-01
RMM:   7    -0.118246460705E+04   -0.10476E-02   -0.87611E-04  1663   0.365E-02    0.134E-01
RMM:   8    -0.118246482795E+04   -0.22090E-03   -0.21537E-04  1638   0.188E-02    0.922E-02
RMM:   9    -0.118246486838E+04   -0.40426E-04   -0.10572E-04  1577   0.121E-02    0.544E-02
RMM:  10    -0.118246487338E+04   -0.49998E-05   -0.10592E-04  1567   0.106E-02    0.330E-02
RMM:  11    -0.118246487779E+04   -0.44188E-05   -0.14593E-05  1461   0.477E-03    0.212E-02
RMM:  12    -0.118246488114E+04   -0.33471E-05   -0.55811E-06  1248   0.273E-03    0.156E-02
RMM:  13    -0.118246488148E+04   -0.33429E-06   -0.29542E-06  1113   0.220E-03
  14 F= -.11895994E+04 E0= -.11895994E+04  d E =-.230239E-01  mag=     2.0000
       N       E                     dE             d eps       ncg     rms          rms(c)
DAV:   1    -0.118237321391E+04    0.91667E-01   -0.65807E+01  1536   0.110E+01    0.437E+00
RMM:   2    -0.118241628614E+04   -0.43072E-01   -0.16032E+00  1546   0.159E+00    0.299E+00
RMM:   3    -0.118243858496E+04   -0.22299E-01   -0.20653E-01  1587   0.592E-01    0.233E+00
RMM:   4    -0.118244510419E+04   -0.65192E-02   -0.42769E-02  1624   0.274E-01    0.172E+00
RMM:   5    -0.118244387579E+04    0.12284E-02   -0.22527E-02  1600   0.184E-01    0.981E-01
RMM:   6    -0.118244545145E+04   -0.15757E-02   -0.78350E-03  1611   0.105E-01    0.623E-01
RMM:   7    -0.118244864213E+04   -0.31907E-02   -0.41349E-03  1676   0.775E-02    0.269E-01
RMM:   8    -0.118244908057E+04   -0.43844E-03   -0.78345E-04  1763   0.350E-02    0.202E-01
RMM:   9    -0.118244923217E+04   -0.15160E-03   -0.10193E-03  1584   0.301E-02    0.104E-01
RMM:  10    -0.118244924706E+04   -0.14886E-04   -0.32617E-04  1587   0.187E-02    0.669E-02
RMM:  11    -0.118244926647E+04   -0.19407E-04   -0.72189E-05  1662   0.973E-03    0.492E-02
RMM:  12    -0.118244927086E+04   -0.43946E-05   -0.28728E-05  1614   0.629E-03    0.290E-02
RMM:  13    -0.118244926913E+04    0.17303E-05   -0.14806E-05  1478   0.436E-03    0.191E-02
RMM:  14    -0.118244927155E+04   -0.24161E-05   -0.39029E-06  1123   0.245E-03    0.967E-03
RMM:  15    -0.118244927132E+04    0.22978E-06   -0.19272E-06  1065   0.173E-03
  15 F= -.11895890E+04 E0= -.11895890E+04  d E =-.126362E-01  mag=     1.9999
       N       E                     dE             d eps       ncg     rms          rms(c)
DAV:   1    -0.118241028420E+04    0.38987E-01   -0.34866E+01  1536   0.803E+00    0.237E+00
RMM:   2    -0.118245276268E+04   -0.42478E-01   -0.71599E-01  1546   0.113E+00    0.203E+00
RMM:   3    -0.118246379593E+04   -0.11033E-01   -0.11314E-01  1592   0.423E-01    0.164E+00
RMM:   4    -0.118246664128E+04   -0.28453E-02   -0.14954E-02  1685   0.172E-01    0.140E+00
RMM:   5    -0.118246626369E+04    0.37759E-03   -0.13698E-02  1584   0.143E-01    0.783E-01
RMM:   6    -0.118246603239E+04    0.23130E-03   -0.32801E-03  1575   0.756E-02    0.516E-01
RMM:   7    -0.118246747826E+04   -0.14459E-02   -0.10637E-03  1762   0.443E-02    0.329E-01
RMM:   8    -0.118246827678E+04   -0.79852E-03   -0.66576E-04  1615   0.315E-02    0.191E-01
RMM:   9    -0.118246829995E+04   -0.23165E-04   -0.55857E-04  1571   0.232E-02    0.982E-02
RMM:  10    -0.118246832580E+04   -0.25849E-04   -0.10536E-04  1572   0.121E-02    0.741E-02
RMM:  11    -0.118246832964E+04   -0.38389E-05   -0.42022E-05  1616   0.737E-03    0.468E-02
RMM:  12    -0.118246833410E+04   -0.44658E-05   -0.15620E-05  1484   0.452E-03    0.293E-02
RMM:  13    -0.118246833415E+04   -0.50750E-07   -0.94783E-06  1378   0.352E-03
  16 F= -.11896043E+04 E0= -.11896043E+04  d E =-.279049E-01  mag=     2.0000
       N       E                     dE             d eps       ncg     rms          rms(c)
DAV:   1    -0.118246374896E+04    0.45851E-02   -0.36998E+00  1600   0.259E+00    0.924E-01
RMM:   2    -0.118246506068E+04   -0.13117E-02   -0.77262E-02  1547   0.369E-01    0.650E-01
RMM:   3    -0.118246654748E+04   -0.14868E-02   -0.10957E-02  1590   0.138E-01    0.517E-01
RMM:   4    -0.118246723895E+04   -0.69146E-03   -0.19256E-03  1643   0.605E-02    0.418E-01
RMM:   5    -0.118246733884E+04   -0.99890E-04   -0.15853E-03  1581   0.495E-02    0.215E-01
RMM:   6    -0.118246753840E+04   -0.19957E-03   -0.36140E-04  1597   0.250E-02    0.142E-01
RMM:   7    -0.118246786789E+04   -0.32948E-03   -0.18743E-04  1641   0.177E-02    0.660E-02
RMM:   8    -0.118246791592E+04   -0.48034E-04   -0.46528E-05  1644   0.852E-03    0.465E-02
RMM:   9    -0.118246792443E+04   -0.85103E-05   -0.51633E-05  1514   0.732E-03    0.220E-02
RMM:  10    -0.118246792556E+04   -0.11333E-05   -0.11876E-05  1329   0.401E-03    0.156E-02
RMM:  11    -0.118246792714E+04   -0.15777E-05   -0.41674E-06  1157   0.243E-03    0.953E-03
RMM:  12    -0.118246792724E+04   -0.10173E-06   -0.23010E-06  1081   0.163E-03
  17 F= -.11896052E+04 E0= -.11896051E+04  d E =-.287521E-01  mag=     2.0000
       N       E                     dE             d eps       ncg     rms          rms(c)
DAV:   1    -0.118246804020E+04   -0.11306E-03   -0.41310E-01  1664   0.873E-01    0.285E-01
RMM:   2    -0.118246812296E+04   -0.82761E-04   -0.82880E-03  1547   0.122E-01    0.218E-01
RMM:   3    -0.118246829077E+04   -0.16780E-03   -0.12161E-03  1591   0.458E-02    0.172E-01
RMM:   4    -0.118246842426E+04   -0.13349E-03   -0.20163E-04  1649   0.199E-02    0.145E-01
RMM:   5    -0.118246848123E+04   -0.56972E-04   -0.17255E-04  1573   0.164E-02    0.764E-02
RMM:   6    -0.118246850997E+04   -0.28739E-04   -0.39591E-05  1562   0.837E-03    0.506E-02
RMM:   7    -0.118246854675E+04   -0.36780E-04   -0.18321E-05  1450   0.572E-03    0.266E-02
RMM:   8    -0.118246855368E+04   -0.69326E-05   -0.57405E-06  1215   0.305E-03    0.177E-02
RMM:   9    -0.118246855456E+04   -0.88221E-06   -0.60586E-06  1165   0.256E-03
  18 F= -.11896054E+04 E0= -.11896054E+04  d E =-.289622E-01  mag=     2.0000
       N       E                     dE             d eps       ncg     rms          rms(c)
DAV:   1    -0.118246876337E+04   -0.20969E-03   -0.24433E-02  1728   0.208E-01    0.723E-02
RMM:   2    -0.118246875406E+04    0.93077E-05   -0.49030E-04  1549   0.289E-02    0.487E-02
RMM:   3    -0.118246877000E+04   -0.15940E-04   -0.66258E-05  1569   0.108E-02    0.384E-02
RMM:   4    -0.118246877881E+04   -0.88078E-05   -0.14188E-05  1310   0.486E-03    0.316E-02
RMM:   5    -0.118246878271E+04   -0.38974E-05   -0.94424E-06  1261   0.387E-03    0.167E-02
RMM:   6    -0.118246878450E+04   -0.17888E-05   -0.23548E-06  1091   0.202E-03    0.108E-02
RMM:   7    -0.118246878655E+04   -0.20496E-05   -0.13019E-06  1017   0.144E-03    0.524E-03
RMM:   8    -0.118246878691E+04   -0.35733E-06   -0.22571E-07   935   0.728E-04
  19 F= -.11896057E+04 E0= -.11896057E+04  d E =-.327325E-03  mag=     2.0000
       N       E                     dE             d eps       ncg     rms          rms(c)
DAV:   1    -0.118246911786E+04   -0.33131E-03   -0.22048E-01  1664   0.625E-01    0.224E-01
RMM:   2    -0.118246905732E+04    0.60539E-04   -0.44512E-03  1549   0.875E-02    0.155E-01
RMM:   3    -0.118246917958E+04   -0.12226E-03   -0.63171E-04  1588   0.328E-02    0.124E-01
RMM:   4    -0.118246926835E+04   -0.88770E-04   -0.11371E-04  1633   0.146E-02    0.997E-02
RMM:   5    -0.118246930206E+04   -0.33709E-04   -0.87354E-05  1546   0.116E-02    0.527E-02
RMM:   6    -0.118246932142E+04   -0.19358E-04   -0.20382E-05  1519   0.584E-03    0.345E-02
RMM:   7    -0.118246934235E+04   -0.20930E-04   -0.11220E-05  1305   0.425E-03    0.164E-02
RMM:   8    -0.118246934566E+04   -0.33138E-05   -0.25124E-06  1120   0.203E-03    0.116E-02
RMM:   9    -0.118246934635E+04   -0.69073E-06   -0.34914E-06  1095   0.189E-03
  20 F= -.11896065E+04 E0= -.11896065E+04  d E =-.117048E-02  mag=     2.0000
       N       E                     dE             d eps       ncg     rms          rms(c)
DAV:   1    -0.118246895048E+04    0.39519E-03   -0.88219E-01  1536   0.125E+00    0.450E-01
RMM:   2    -0.118246888325E+04    0.67229E-04   -0.17602E-02  1549   0.176E-01    0.313E-01
RMM:   3    -0.118246933629E+04   -0.45304E-03   -0.25144E-03  1589   0.658E-02    0.252E-01
RMM:   4    -0.118246960710E+04   -0.27081E-03   -0.44216E-04  1626   0.291E-02    0.202E-01
RMM:   5    -0.118246967502E+04   -0.67926E-04   -0.37333E-04  1577   0.238E-02    0.106E-01
RMM:   6    -0.118246975301E+04   -0.77985E-04   -0.83124E-05  1583   0.118E-02    0.685E-02
RMM:   7    -0.118246984000E+04   -0.86992E-04   -0.45877E-05  1585   0.864E-03    0.321E-02
RMM:   8    -0.118246985117E+04   -0.11173E-04   -0.11209E-05  1377   0.408E-03    0.231E-02
RMM:   9    -0.118246985315E+04   -0.19732E-05   -0.14222E-05  1285   0.368E-03    0.107E-02
RMM:  10    -0.118246985327E+04   -0.12814E-06   -0.23897E-06  1092   0.185E-03
  21 F= -.11896076E+04 E0= -.11896076E+04  d E =-.223924E-02  mag=     2.0000
       N       E                     dE             d eps       ncg     rms          rms(c)
DAV:   1    -0.118246362546E+04    0.62277E-02   -0.35256E+00  1536   0.251E+00    0.910E-01
RMM:   2    -0.118246476662E+04   -0.11412E-02   -0.73271E-02  1547   0.353E-01    0.646E-01
RMM:   3    -0.118246616968E+04   -0.14031E-02   -0.99209E-03  1589   0.131E-01    0.520E-01
RMM:   4    -0.118246694569E+04   -0.77601E-03   -0.18709E-03  1627   0.589E-02    0.413E-01
RMM:   5    -0.118246699964E+04   -0.53950E-04   -0.15343E-03  1583   0.467E-02    0.221E-01
RMM:   6    -0.118246722306E+04   -0.22341E-03   -0.32763E-04  1594   0.233E-02    0.140E-01
RMM:   7    -0.118246755720E+04   -0.33415E-03   -0.18374E-04  1634   0.172E-02    0.674E-02
RMM:   8    -0.118246759569E+04   -0.38484E-04   -0.44718E-05  1648   0.795E-03    0.495E-02
RMM:   9    -0.118246760377E+04   -0.80789E-05   -0.63372E-05  1505   0.752E-03    0.224E-02
RMM:  10    -0.118246760445E+04   -0.68940E-06   -0.12808E-05  1319   0.396E-03    0.172E-02
RMM:  11    -0.118246760629E+04   -0.18398E-05   -0.49793E-06  1184   0.252E-03    0.105E-02
RMM:  12    -0.118246760632E+04   -0.24920E-07   -0.17542E-06  1067   0.147E-03
  22 F= -.11896065E+04 E0= -.11896064E+04  d E =-.109369E-02  mag=     1.9999
       N       E                     dE             d eps       ncg     rms          rms(c)
DAV:   1    -0.118246725119E+04    0.35510E-03   -0.20222E+00  1568   0.190E+00    0.619E-01
RMM:   2    -0.118246810908E+04   -0.85789E-03   -0.39223E-02  1548   0.264E-01    0.477E-01
RMM:   3    -0.118246887828E+04   -0.76920E-03   -0.57335E-03  1590   0.983E-02    0.386E-01
RMM:   4    -0.118246931980E+04   -0.44152E-03   -0.93275E-04  1641   0.426E-02    0.319E-01
RMM:   5    -0.118246939814E+04   -0.78343E-04   -0.81879E-04  1582   0.346E-02    0.175E-01
RMM:   6    -0.118246951467E+04   -0.11653E-03   -0.17547E-04  1578   0.174E-02    0.113E-01
RMM:   7    -0.118246971014E+04   -0.19547E-03   -0.87458E-05  1616   0.124E-02    0.608E-02
RMM:   8    -0.118246974333E+04   -0.33190E-04   -0.29250E-05  1572   0.662E-03    0.395E-02
RMM:   9    -0.118246974801E+04   -0.46807E-05   -0.40169E-05  1477   0.610E-03    0.177E-02
RMM:  10    -0.118246974874E+04   -0.72770E-06   -0.45990E-06  1188   0.254E-03
  23 F= -.11896078E+04 E0= -.11896078E+04  d E =-.240255E-02  mag=     2.0000
       N       E                     dE             d eps       ncg     rms          rms(c)
DAV:   1    -0.118247114414E+04   -0.13961E-02   -0.10975E-02  1696   0.141E-01    0.539E-02
RMM:   2    -0.118247113269E+04    0.11449E-04   -0.24062E-04  1570   0.199E-02    0.240E-02
RMM:   3    -0.118247114162E+04   -0.89252E-05   -0.34674E-05  1422   0.742E-03    0.207E-02
RMM:   4    -0.118247114627E+04   -0.46524E-05   -0.70708E-06  1169   0.336E-03    0.140E-02
RMM:   5    -0.118247114780E+04   -0.15267E-05   -0.31760E-06  1089   0.231E-03    0.830E-03
RMM:   6    -0.118247114921E+04   -0.14138E-05   -0.92251E-07  1004   0.132E-03    0.539E-03
RMM:   7    -0.118247115009E+04   -0.88262E-06   -0.63829E-07   988   0.101E-03
  24 F= -.11896092E+04 E0= -.11896092E+04  d E =-.142808E-02  mag=     2.0000
       N       E                     dE             d eps       ncg     rms          rms(c)
DAV:   1    -0.118247519012E+04   -0.40409E-02   -0.99511E-02  1632   0.425E-01    0.170E-01
RMM:   2    -0.118247506228E+04    0.12785E-03   -0.22270E-03  1567   0.606E-02    0.730E-02
RMM:   3    -0.118247514556E+04   -0.83284E-04   -0.32810E-04  1600   0.225E-02    0.624E-02
RMM:   4    -0.118247518880E+04   -0.43237E-04   -0.63658E-05  1639   0.101E-02    0.440E-02
RMM:   5    -0.118247520495E+04   -0.16149E-04   -0.27766E-05  1504   0.653E-03    0.268E-02
RMM:   6    -0.118247521922E+04   -0.14274E-04   -0.97377E-06  1265   0.384E-03    0.173E-02
RMM:   7    -0.118247522834E+04   -0.91193E-05   -0.64129E-06  1170   0.285E-03    0.946E-03
RMM:   8    -0.118247523014E+04   -0.18023E-05   -0.10294E-06  1035   0.146E-03    0.630E-03
RMM:   9    -0.118247523039E+04   -0.24632E-06   -0.13309E-06  1025   0.122E-03
  25 F= -.11896134E+04 E0= -.11896133E+04  d E =-.558730E-02  mag=     2.0000
       N       E                     dE             d eps       ncg     rms          rms(c)
DAV:   1    -0.118248266981E+04   -0.74397E-02   -0.39827E-01  1600   0.849E-01    0.346E-01
RMM:   2    -0.118248224990E+04    0.41991E-03   -0.90235E-03  1565   0.121E-01    0.147E-01
RMM:   3    -0.118248255915E+04   -0.30925E-03   -0.12968E-03  1601   0.449E-02    0.126E-01
RMM:   4    -0.118248269794E+04   -0.13879E-03   -0.24029E-04  1669   0.199E-02    0.889E-02
RMM:   5    -0.118248274062E+04   -0.42684E-04   -0.11982E-04  1571   0.134E-02    0.538E-02
RMM:   6    -0.118248278836E+04   -0.47739E-04   -0.38153E-05  1583   0.762E-03    0.354E-02
RMM:   7    -0.118248282558E+04   -0.37216E-04   -0.27512E-05  1487   0.587E-03    0.193E-02
RMM:   8    -0.118248283259E+04   -0.70170E-05   -0.44466E-06  1174   0.289E-03    0.129E-02
RMM:   9    -0.118248283354E+04   -0.94774E-06   -0.54800E-06  1134   0.239E-03
  26 F= -.11896211E+04 E0= -.11896211E+04  d E =-.133428E-01  mag=     1.9999
       N       E                     dE             d eps       ncg     rms          rms(c)
DAV:   1    -0.118249540731E+04   -0.12575E-01   -0.15949E+00  1536   0.169E+00    0.706E-01
RMM:   2    -0.118249416922E+04    0.12381E-02   -0.34940E-02  1564   0.240E-01    0.307E-01
RMM:   3    -0.118249504510E+04   -0.87588E-03   -0.49059E-03  1604   0.882E-02    0.256E-01
RMM:   4    -0.118249550420E+04   -0.45910E-03   -0.95763E-04  1680   0.390E-02    0.180E-01
RMM:   5    -0.118249561429E+04   -0.11009E-03   -0.46827E-04  1608   0.261E-02    0.110E-01
RMM:   6    -0.118249576943E+04   -0.15514E-03   -0.14060E-04  1610   0.150E-02    0.714E-02
RMM:   7    -0.118249590305E+04   -0.13362E-03   -0.10943E-04  1610   0.116E-02    0.392E-02
RMM:   8    -0.118249593240E+04   -0.29346E-04   -0.18982E-05  1595   0.600E-03    0.261E-02
RMM:   9    -0.118249593479E+04   -0.23968E-05   -0.22077E-05  1462   0.465E-03    0.146E-02
RMM:  10    -0.118249593807E+04   -0.32738E-05   -0.67008E-06  1208   0.300E-03    0.780E-03
RMM:  11    -0.118249593850E+04   -0.43647E-06   -0.19801E-06  1072   0.162E-03
  27 F= -.11896345E+04 E0= -.11896345E+04  d E =-.267305E-01  mag=     1.9999
       N       E                     dE             d eps       ncg     rms          rms(c)
DAV:   1    -0.118251118897E+04   -0.15251E-01   -0.63841E+00  1536   0.337E+00    0.146E+00
RMM:   2    -0.118250868598E+04    0.25030E-02   -0.13816E-01  1561   0.471E-01    0.691E-01
RMM:   3    -0.118251125956E+04   -0.25736E-02   -0.18823E-02  1602   0.172E-01    0.530E-01
RMM:   4    -0.118251224027E+04   -0.98071E-03   -0.34997E-03  1684   0.752E-02    0.371E-01
RMM:   5    -0.118251246809E+04   -0.22783E-03   -0.20334E-03  1603   0.523E-02    0.223E-01
RMM:   6    -0.118251292357E+04   -0.45547E-03   -0.60322E-04  1638   0.303E-02    0.148E-01
RMM:   7    -0.118251337930E+04   -0.45573E-03   -0.43573E-04  1663   0.228E-02    0.806E-02
RMM:   8    -0.118251347867E+04   -0.99369E-04   -0.84092E-05  1627   0.122E-02    0.554E-02
RMM:   9    -0.118251349004E+04   -0.11375E-04   -0.96242E-05  1565   0.936E-03    0.300E-02
RMM:  10    -0.118251350304E+04   -0.12998E-04   -0.31628E-05  1566   0.623E-03    0.158E-02
RMM:  11    -0.118251350474E+04   -0.16937E-05   -0.59014E-06  1202   0.287E-03    0.126E-02
RMM:  12    -0.118251350535E+04   -0.61547E-06   -0.32843E-06  1109   0.218E-03
  28 F= -.11896525E+04 E0= -.11896525E+04  d E =-.447785E-01  mag=     1.9998
       N       E                     dE             d eps       ncg     rms          rms(c)
DAV:   1    -0.118249718133E+04    0.16323E-01   -0.25569E+01  1536   0.664E+00    0.287E+00
RMM:   2    -0.118250324843E+04   -0.60671E-02   -0.54533E-01  1557   0.915E-01    0.169E+00
RMM:   3    -0.118250852571E+04   -0.52773E-02   -0.72442E-02  1593   0.337E-01    0.112E+00
RMM:   4    -0.118251170897E+04   -0.31833E-02   -0.13504E-02  1714   0.143E-01    0.809E-01
RMM:   5    -0.118251222214E+04   -0.51317E-03   -0.83547E-03  1603   0.106E-01    0.468E-01
RMM:   6    -0.118251322546E+04   -0.10033E-02   -0.29966E-03  1619   0.627E-02    0.304E-01
RMM:   7    -0.118251460885E+04   -0.13834E-02   -0.15041E-03  1686   0.441E-02    0.162E-01
RMM:   8    -0.118251490439E+04   -0.29554E-03   -0.36487E-04  1642   0.239E-02    0.106E-01
RMM:   9    -0.118251496317E+04   -0.58780E-04   -0.40997E-04  1591   0.187E-02    0.564E-02
RMM:  10    -0.118251498789E+04   -0.24713E-04   -0.10408E-04  1623   0.113E-02    0.328E-02
RMM:  11    -0.118251499786E+04   -0.99795E-05   -0.17218E-05  1582   0.486E-03    0.260E-02
RMM:  12    -0.118251499992E+04   -0.20543E-05   -0.13533E-05  1472   0.421E-03    0.130E-02
RMM:  13    -0.118251500111E+04   -0.11899E-05   -0.25838E-06  1079   0.206E-03    0.104E-02
RMM:  14    -0.118251500139E+04   -0.28199E-06   -0.10709E-06  1026   0.130E-03
  29 F= -.11896547E+04 E0= -.11896547E+04  d E =-.469403E-01  mag=     1.9993
       N       E                     dE             d eps       ncg     rms          rms(c)
DAV:   1    -0.118251374208E+04    0.12590E-02   -0.50764E+00  1664   0.294E+00    0.968E-01
RMM:   2    -0.118251609745E+04   -0.23554E-02   -0.10194E-01  1557   0.414E-01    0.548E-01
RMM:   3    -0.118251814368E+04   -0.20462E-02   -0.14787E-02  1601   0.152E-01    0.467E-01
RMM:   4    -0.118251905754E+04   -0.91386E-03   -0.27809E-03  1672   0.671E-02    0.334E-01
RMM:   5    -0.118251895760E+04    0.99937E-04   -0.13757E-03  1594   0.447E-02    0.200E-01
RMM:   6    -0.118251934750E+04   -0.38990E-03   -0.36678E-04  1659   0.249E-02    0.133E-01
RMM:   7    -0.118251975206E+04   -0.40456E-03   -0.32275E-04  1615   0.199E-02    0.746E-02
RMM:   8    -0.118251980590E+04   -0.53835E-04   -0.52057E-05  1669   0.940E-03    0.456E-02
RMM:   9    -0.118251981483E+04   -0.89333E-05   -0.75227E-05  1565   0.852E-03    0.249E-02
RMM:  10    -0.118251982115E+04   -0.63229E-05   -0.25786E-05  1546   0.567E-03    0.130E-02
RMM:  11    -0.118251982274E+04   -0.15838E-05   -0.51338E-06  1196   0.275E-03    0.111E-02
RMM:  12    -0.118251982280E+04   -0.57626E-07   -0.16801E-06  1052   0.163E-03
  30 F= -.11896593E+04 E0= -.11896592E+04  d E =-.515059E-01  mag=     1.9996
       N       E                     dE             d eps       ncg     rms          rms(c)
DAV:   1    -0.118253155166E+04   -0.11729E-01   -0.13657E+00  1760   0.178E+00    0.430E-01
RMM:   2    -0.118253411036E+04   -0.25587E-02   -0.40301E-02  1570   0.241E-01    0.306E-01
RMM:   3    -0.118253475268E+04   -0.64232E-03   -0.64920E-03  1608   0.862E-02    0.263E-01
RMM:   4    -0.118253508354E+04   -0.33086E-03   -0.80731E-04  1831   0.332E-02    0.201E-01
RMM:   5    -0.118253523341E+04   -0.14987E-03   -0.57552E-04  1583   0.273E-02    0.122E-01
RMM:   6    -0.118253535587E+04   -0.12247E-03   -0.14580E-04  1557   0.149E-02    0.861E-02
RMM:   7    -0.118253550820E+04   -0.15232E-03   -0.94394E-05  1632   0.116E-02    0.444E-02
RMM:   8    -0.118253551904E+04   -0.10846E-04   -0.15570E-05  1570   0.551E-03    0.303E-02
RMM:   9    -0.118253551379E+04    0.52496E-05   -0.40543E-05  1565   0.618E-03    0.122E-02
RMM:  10    -0.118253551589E+04   -0.21016E-05   -0.40418E-06  1148   0.263E-03    0.760E-03
RMM:  11    -0.118253551597E+04   -0.80887E-07   -0.88072E-07  1028   0.125E-03
  31 F= -.11896747E+04 E0= -.11896747E+04  d E =-.154725E-01  mag=     1.9994
       N       E                     dE             d eps       ncg     rms          rms(c)
DAV:   1    -0.118252460843E+04    0.10907E-01   -0.12337E+01  1600   0.526E+00    0.125E+00
RMM:   2    -0.118255378012E+04   -0.29172E-01   -0.36561E-01  1566   0.719E-01    0.992E-01
RMM:   3    -0.118255864590E+04   -0.48658E-02   -0.58610E-02  1604   0.258E-01    0.797E-01
RMM:   4    -0.118256025103E+04   -0.16051E-02   -0.70017E-03  1855   0.980E-02    0.625E-01
RMM:   5    -0.118256050663E+04   -0.25560E-03   -0.52459E-03  1582   0.815E-02    0.377E-01
RMM:   6    -0.118256102769E+04   -0.52106E-03   -0.14529E-03  1571   0.455E-02    0.265E-01
RMM:   7    -0.118256212544E+04   -0.10977E-02   -0.91675E-04  1639   0.363E-02    0.130E-01
RMM:   8    -0.118256217789E+04   -0.52452E-04   -0.13745E-04  1649   0.162E-02    0.906E-02
RMM:   9    -0.118256212841E+04    0.49484E-04   -0.36117E-04  1610   0.182E-02    0.354E-02
RMM:  10    -0.118256214509E+04   -0.16686E-04   -0.34812E-05  1633   0.753E-03    0.208E-02
RMM:  11    -0.118256214558E+04   -0.48184E-06   -0.71885E-06  1225   0.325E-03
  32 F= -.11897006E+04 E0= -.11897005E+04  d E =-.412973E-01  mag=     1.9989
       N       E                     dE             d eps       ncg     rms          rms(c)
DAV:   1    -0.118255972873E+04    0.24164E-02   -0.14188E+00  1728   0.178E+00    0.391E-01
RMM:   2    -0.118256279028E+04   -0.30615E-02   -0.41115E-02  1572   0.243E-01    0.313E-01
RMM:   3    -0.118256334950E+04   -0.55922E-03   -0.65817E-03  1605   0.873E-02    0.264E-01
RMM:   4    -0.118256372636E+04   -0.37686E-03   -0.86117E-04  1813   0.337E-02    0.204E-01
RMM:   5    -0.118256389991E+04   -0.17355E-03   -0.58321E-04  1581   0.276E-02    0.124E-01
RMM:   6    -0.118256401302E+04   -0.11311E-03   -0.14692E-04  1564   0.150E-02    0.880E-02
RMM:   7    -0.118256419344E+04   -0.18043E-03   -0.10090E-04  1623   0.122E-02    0.439E-02
RMM:   8    -0.118256421109E+04   -0.17643E-04   -0.17573E-05  1570   0.586E-03    0.305E-02
RMM:   9    -0.118256420367E+04    0.74186E-05   -0.37890E-05  1562   0.611E-03    0.131E-02
RMM:  10    -0.118256420560E+04   -0.19374E-05   -0.43808E-06  1159   0.270E-03    0.888E-03
RMM:  11    -0.118256420598E+04   -0.37084E-06   -0.99165E-07  1032   0.130E-03
  33 F= -.11897023E+04 E0= -.11897022E+04  d E =-.430472E-01  mag=     1.9987
       N       E                     dE             d eps       ncg     rms          rms(c)
DAV:   1    -0.118257834537E+04   -0.14140E-01   -0.32149E+00  1600   0.213E+00    0.658E-01
RMM:   2    -0.118258037053E+04   -0.20252E-02   -0.46828E-02  1541   0.273E-01    0.518E-01
RMM:   3    -0.118258077232E+04   -0.40179E-03   -0.60989E-03  1592   0.104E-01    0.371E-01
RMM:   4    -0.118258152505E+04   -0.75273E-03   -0.12905E-03  1731   0.470E-02    0.255E-01
RMM:   5    -0.118258168093E+04   -0.15588E-03   -0.12386E-03  1585   0.375E-02    0.145E-01
RMM:   6    -0.118258202638E+04   -0.34545E-03   -0.27162E-04  1603   0.199E-02    0.913E-02
RMM:   7    -0.118258225639E+04   -0.23001E-03   -0.16187E-04  1662   0.149E-02    0.511E-02
RMM:   8    -0.118258229119E+04   -0.34795E-04   -0.28213E-05  1642   0.699E-03    0.384E-02
RMM:   9    -0.118258230105E+04   -0.98616E-05   -0.63575E-05  1563   0.708E-03    0.184E-02
RMM:  10    -0.118258230586E+04   -0.48095E-05   -0.65347E-06  1222   0.314E-03    0.129E-02
RMM:  11    -0.118258230692E+04   -0.10633E-05   -0.23581E-06  1067   0.175E-03    0.933E-03
RMM:  12    -0.118258230654E+04    0.38859E-06   -0.16598E-06  1056   0.141E-03
  34 F= -.11897201E+04 E0= -.11897200E+04  d E =-.177506E-01  mag=     1.9983
       N       E                     dE             d eps       ncg     rms          rms(c)
DAV:   1    -0.118256053298E+04    0.21774E-01   -0.29157E+01  1536   0.630E+00    0.185E+00
RMM:   2    -0.118259724113E+04   -0.36708E-01   -0.45180E-01  1542   0.822E-01    0.177E+00
RMM:   3    -0.118259844736E+04   -0.12062E-02   -0.59727E-02  1591   0.312E-01    0.118E+00
RMM:   4    -0.118260313890E+04   -0.46915E-02   -0.10248E-02  1807   0.132E-01    0.876E-01
RMM:   5    -0.118260392789E+04   -0.78899E-03   -0.12854E-02  1592   0.117E-01    0.474E-01
RMM:   6    -0.118260524148E+04   -0.13136E-02   -0.26768E-03  1595   0.600E-02    0.300E-01
RMM:   7    -0.118260659047E+04   -0.13490E-02   -0.13165E-03  1652   0.448E-02    0.157E-01
RMM:   8    -0.118260682319E+04   -0.23272E-03   -0.28368E-04  1753   0.213E-02    0.109E-01
RMM:   9    -0.118260686503E+04   -0.41836E-04   -0.43741E-04  1594   0.189E-02    0.664E-02
RMM:  10    -0.118260689161E+04   -0.26588E-04   -0.55898E-05  1615   0.901E-03    0.480E-02
RMM:  11    -0.118260689747E+04   -0.58588E-05   -0.38128E-05  1555   0.638E-03    0.315E-02
RMM:  12    -0.118260689675E+04    0.72235E-06   -0.15864E-05  1335   0.412E-03    0.205E-02
RMM:  13    -0.118260689874E+04   -0.19849E-05   -0.40316E-06  1105   0.213E-03    0.118E-02
RMM:  14    -0.118260690186E+04   -0.31238E-05   -0.16010E-06  1047   0.139E-03    0.105E-02
RMM:  15    -0.118260690308E+04   -0.12170E-05   -0.15068E-06  1043   0.111E-03    0.991E-03
RMM:  16    -0.118260690274E+04    0.33162E-06   -0.29361E-06  1038   0.141E-03
  35 F= -.11897436E+04 E0= -.11897434E+04  d E =-.413178E-01  mag=     1.9965
       N       E                     dE             d eps       ncg     rms          rms(c)
DAV:   1    -0.118262188609E+04   -0.14983E-01   -0.45312E+00  1600   0.259E+00    0.973E-01
RMM:   2    -0.118262491155E+04   -0.30255E-02   -0.65184E-02  1552   0.328E-01    0.870E-01
RMM:   3    -0.118262421788E+04    0.69367E-03   -0.83045E-03  1591   0.127E-01    0.467E-01
RMM:   4    -0.118262556682E+04   -0.13489E-02   -0.20080E-03  1763   0.584E-02    0.289E-01
RMM:   5    -0.118262602988E+04   -0.46305E-03   -0.14095E-03  1578   0.424E-02    0.204E-01
RMM:   6    -0.118262636734E+04   -0.33746E-03   -0.75757E-04  1587   0.294E-02    0.102E-01
RMM:   7    -0.118262663759E+04   -0.27025E-03   -0.16708E-04  1654   0.171E-02    0.557E-02
RMM:   8    -0.118262667785E+04   -0.40266E-04   -0.61025E-05  1596   0.918E-03    0.318E-02
RMM:   9    -0.118262668496E+04   -0.71095E-05   -0.25973E-05  1526   0.572E-03    0.222E-02
RMM:  10    -0.118262668629E+04   -0.13297E-05   -0.12168E-05  1402   0.390E-03    0.163E-02
RMM:  11    -0.118262668703E+04   -0.73487E-06   -0.40427E-06  1103   0.221E-03
  36 F= -.11897622E+04 E0= -.11897619E+04  d E =-.186005E-01  mag=     1.9953
       N       E                     dE             d eps       ncg     rms          rms(c)
DAV:   1    -0.118261887062E+04    0.78157E-02   -0.22588E+01  1536   0.572E+00    0.221E+00
RMM:   2    -0.118264564657E+04   -0.26776E-01   -0.32755E-01  1550   0.728E-01    0.220E+00
RMM:   3    -0.118263930228E+04    0.63443E-02   -0.44416E-02  1590   0.283E-01    0.117E+00
RMM:   4    -0.118264349598E+04   -0.41937E-02   -0.98624E-03  1803   0.126E-01    0.689E-01
RMM:   5    -0.118264593141E+04   -0.24354E-02   -0.71757E-03  1571   0.964E-02    0.675E-01
RMM:   6    -0.118264602849E+04   -0.97080E-04   -0.54369E-03  1592   0.679E-02    0.423E-01
RMM:   7    -0.118264683870E+04   -0.81021E-03   -0.10200E-03  1625   0.417E-02    0.157E-01
RMM:   8    -0.118264723426E+04   -0.39557E-03   -0.34301E-04  1717   0.231E-02    0.975E-02
RMM:   9    -0.118264727243E+04   -0.38162E-04   -0.16599E-04  1588   0.136E-02    0.648E-02
RMM:  10    -0.118264727974E+04   -0.73179E-05   -0.55795E-05  1568   0.855E-03    0.483E-02
RMM:  11    -0.118264728924E+04   -0.95001E-05   -0.27849E-05  1553   0.580E-03    0.460E-02
RMM:  12    -0.118264727658E+04    0.12663E-04   -0.41375E-05  1501   0.605E-03    0.259E-02
RMM:  13    -0.118264728481E+04   -0.82277E-05   -0.10554E-05  1209   0.338E-03    0.181E-02
RMM:  14    -0.118264728991E+04   -0.50997E-05   -0.48966E-06  1115   0.245E-03    0.807E-03
RMM:  15    -0.118264729268E+04   -0.27701E-05   -0.30636E-06  1065   0.181E-03    0.648E-03
RMM:  16    -0.118264729406E+04   -0.13799E-05   -0.16313E-06  1044   0.124E-03    0.567E-03
RMM:  17    -0.118264729353E+04    0.53102E-06   -0.30368E-06  1046   0.138E-03
  37 F= -.11897803E+04 E0= -.11897797E+04  d E =-.367109E-01  mag=     1.9924
       N       E                     dE             d eps       ncg     rms          rms(c)
DAV:   1    -0.118265379705E+04   -0.65030E-02   -0.30617E+00  1632   0.245E+00    0.508E-01
RMM:   2    -0.118265897819E+04   -0.51811E-02   -0.60683E-02  1554   0.336E-01    0.519E-01
RMM:   3    -0.118265949418E+04   -0.51599E-03   -0.90526E-03  1605   0.125E-01    0.479E-01
RMM:   4    -0.118266005637E+04   -0.56219E-03   -0.12348E-03  1862   0.482E-02    0.451E-01
RMM:   5    -0.118266048277E+04   -0.42640E-03   -0.23347E-03  1576   0.535E-02    0.239E-01
RMM:   6    -0.118266060143E+04   -0.11866E-03   -0.45115E-04  1562   0.280E-02    0.189E-01
RMM:   7    -0.118266083595E+04   -0.23452E-03   -0.12506E-04  1630   0.161E-02    0.130E-01
RMM:   8    -0.118266097082E+04   -0.13487E-03   -0.82035E-05  1556   0.115E-02    0.795E-02
RMM:   9    -0.118266095553E+04    0.15287E-04   -0.85720E-05  1577   0.104E-02    0.329E-02
RMM:  10    -0.118266095072E+04    0.48091E-05   -0.20217E-05  1587   0.569E-03    0.180E-02
RMM:  11    -0.118266095062E+04    0.10070E-06   -0.11689E-05  1445   0.381E-03    0.100E-02
RMM:  12    -0.118266095084E+04   -0.21652E-06   -0.21964E-06  1064   0.201E-03
  38 F= -.11897928E+04 E0= -.11897921E+04  d E =-.124277E-01  mag=     1.9921
       N       E                     dE             d eps       ncg     rms          rms(c)
DAV:   1    -0.118265987741E+04    0.10732E-02   -0.24123E+00  1632   0.217E+00    0.454E-01
RMM:   2    -0.118266388280E+04   -0.40054E-02   -0.47600E-02  1552   0.296E-01    0.446E-01
RMM:   3    -0.118266440777E+04   -0.52497E-03   -0.70424E-03  1606   0.111E-01    0.406E-01
RMM:   4    -0.118266490456E+04   -0.49679E-03   -0.98860E-04  1803   0.437E-02    0.381E-01
RMM:   5    -0.118266512922E+04   -0.22466E-03   -0.13246E-03  1573   0.407E-02    0.211E-01
RMM:   6    -0.118266525492E+04   -0.12569E-03   -0.37755E-04  1561   0.248E-02    0.153E-01
RMM:   7    -0.118266546164E+04   -0.20673E-03   -0.94421E-05  1677   0.137E-02    0.103E-01
RMM:   8    -0.118266555339E+04   -0.91748E-04   -0.48770E-05  1577   0.912E-03    0.619E-02
RMM:   9    -0.118266553499E+04    0.18405E-04   -0.67869E-05  1572   0.897E-03    0.254E-02
RMM:  10    -0.118266553532E+04   -0.33196E-06   -0.16810E-05  1580   0.513E-03    0.129E-02
RMM:  11    -0.118266553615E+04   -0.83447E-06   -0.44933E-06  1255   0.256E-03
  39 F= -.11897963E+04 E0= -.11897955E+04  d E =-.159447E-01  mag=     1.9920
       N       E                     dE             d eps       ncg     rms          rms(c)
DAV:   1    -0.118266697063E+04   -0.14353E-02   -0.33669E+00  1632   0.275E+00    0.515E-01
RMM:   2    -0.118267376746E+04   -0.67968E-02   -0.77568E-02  1565   0.373E-01    0.390E-01
RMM:   3    -0.118267559408E+04   -0.18266E-02   -0.12805E-02  1616   0.143E-01    0.317E-01
RMM:   4    -0.118267581409E+04   -0.22002E-03   -0.18928E-03  1750   0.592E-02    0.228E-01
RMM:   5    -0.118267581118E+04    0.29155E-05   -0.67128E-04  1574   0.331E-02    0.155E-01
RMM:   6    -0.118267599837E+04   -0.18719E-03   -0.29847E-04  1591   0.218E-02    0.962E-02
RMM:   7    -0.118267626549E+04   -0.26712E-03   -0.19829E-04  1600   0.181E-02    0.452E-02
RMM:   8    -0.118267627190E+04   -0.64105E-05   -0.30509E-05  1627   0.769E-03    0.322E-02
RMM:   9    -0.118267627316E+04   -0.12588E-05   -0.26015E-05  1498   0.594E-03    0.206E-02
RMM:  10    -0.118267627738E+04   -0.42225E-05   -0.10897E-05  1409   0.396E-03    0.968E-03
RMM:  11    -0.118267627810E+04   -0.71266E-06   -0.20370E-06  1065   0.178E-03
  40 F= -.11898066E+04 E0= -.11898056E+04  d E =-.102627E-01  mag=     1.9910
       N       E                     dE             d eps       ncg     rms          rms(c)
DAV:   1    -0.118266861632E+04    0.76611E-02   -0.44741E+00  1632   0.318E+00    0.614E-01
RMM:   2    -0.118267793212E+04   -0.93158E-02   -0.10484E-01  1562   0.431E-01    0.456E-01
RMM:   3    -0.118268006209E+04   -0.21300E-02   -0.16930E-02  1616   0.164E-01    0.415E-01
RMM:   4    -0.118268058920E+04   -0.52711E-03   -0.24014E-03  1834   0.662E-02    0.301E-01
RMM:   5    -0.118268055664E+04    0.32557E-04   -0.13417E-03  1562   0.446E-02    0.181E-01
RMM:   6    -0.118268090192E+04   -0.34528E-03   -0.55028E-04  1566   0.298E-02    0.103E-01
RMM:   7    -0.118268117615E+04   -0.27423E-03   -0.20734E-04  1667   0.188E-02    0.527E-02
RMM:   8    -0.118268119670E+04   -0.20554E-04   -0.39429E-05  1602   0.877E-03    0.349E-02
RMM:   9    -0.118268119592E+04    0.78547E-06   -0.40111E-05  1534   0.727E-03    0.214E-02
RMM:  10    -0.118268120194E+04   -0.60216E-05   -0.12093E-05  1495   0.431E-03    0.947E-03
RMM:  11    -0.118268120186E+04    0.80370E-07   -0.25426E-06  1077   0.193E-03
  41 F= -.11898110E+04 E0= -.11898098E+04  d E =-.146863E-01  mag=     1.9894
       N       E                     dE             d eps       ncg     rms          rms(c)
DAV:   1    -0.118268405057E+04   -0.28486E-02   -0.35547E+00  1600   0.268E+00    0.668E-01
RMM:   2    -0.118268972647E+04   -0.56759E-02   -0.70071E-02  1576   0.368E-01    0.765E-01
RMM:   3    -0.118268929019E+04    0.43628E-03   -0.10533E-02  1616   0.142E-01    0.420E-01
RMM:   4    -0.118269056673E+04   -0.12765E-02   -0.17657E-03  1773   0.594E-02    0.306E-01
RMM:   5    -0.118269099967E+04   -0.43294E-03   -0.15232E-03  1564   0.479E-02    0.193E-01
RMM:   6    -0.118269114419E+04   -0.14452E-03   -0.48868E-04  1577   0.283E-02    0.115E-01
RMM:   7    -0.118269149460E+04   -0.35041E-03   -0.25190E-04  1639   0.211E-02    0.675E-02
RMM:   8    -0.118269156515E+04   -0.70556E-04   -0.57984E-05  1644   0.110E-02    0.369E-02
RMM:   9    -0.118269156826E+04   -0.31112E-05   -0.43922E-05  1553   0.780E-03    0.196E-02
RMM:  10    -0.118269156840E+04   -0.13955E-06   -0.18097E-05  1525   0.537E-03    0.107E-02
RMM:  11    -0.118269156940E+04   -0.99347E-06   -0.50693E-06  1226   0.295E-03
  42 F= -.11898206E+04 E0= -.11898191E+04  d E =-.958436E-02  mag=     1.9882
       N       E                     dE             d eps       ncg     rms          rms(c)
DAV:   1    -0.118269021520E+04    0.13532E-02   -0.20679E+00  1664   0.205E+00    0.504E-01
RMM:   2    -0.118269341724E+04   -0.32020E-02   -0.40594E-02  1575   0.282E-01    0.594E-01
RMM:   3    -0.118269303296E+04    0.38427E-03   -0.61342E-03  1615   0.109E-01    0.320E-01
RMM:   4    -0.118269395415E+04   -0.92119E-03   -0.10650E-03  1770   0.460E-02    0.233E-01
RMM:   5    -0.118269423086E+04   -0.27671E-03   -0.92501E-04  1563   0.375E-02    0.148E-01
RMM:   6    -0.118269432329E+04   -0.92430E-04   -0.28157E-04  1583   0.215E-02    0.875E-02
RMM:   7    -0.118269456903E+04   -0.24573E-03   -0.15141E-04  1623   0.164E-02    0.538E-02
RMM:   8    -0.118269460475E+04   -0.35720E-04   -0.33087E-05  1608   0.834E-03    0.279E-02
RMM:   9    -0.118269460916E+04   -0.44155E-05   -0.25685E-05  1538   0.604E-03    0.148E-02
RMM:  10    -0.118269460970E+04   -0.53532E-06   -0.10129E-05  1506   0.406E-03    0.806E-03
RMM:  11    -0.118269461040E+04   -0.69640E-06   -0.28136E-06  1088   0.224E-03
  43 F= -.11898230E+04 E0= -.11898214E+04  d E =-.120560E-01  mag=     1.9873
       N       E                     dE             d eps       ncg     rms          rms(c)
DAV:   1    -0.118269631022E+04   -0.17005E-02   -0.38158E+00  1536   0.264E+00    0.688E-01
RMM:   2    -0.118270235391E+04   -0.60437E-02   -0.75459E-02  1562   0.364E-01    0.644E-01
RMM:   3    -0.118270273632E+04   -0.38241E-03   -0.99186E-03  1590   0.140E-01    0.444E-01
RMM:   4    -0.118270369272E+04   -0.95640E-03   -0.17380E-03  1861   0.586E-02    0.373E-01
RMM:   5    -0.118270384866E+04   -0.15594E-03   -0.21385E-03  1554   0.542E-02    0.182E-01
RMM:   6    -0.118270425500E+04   -0.40634E-03   -0.52058E-04  1555   0.308E-02    0.111E-01
RMM:   7    -0.118270445717E+04   -0.20216E-03   -0.16556E-04  1777   0.174E-02    0.571E-02
RMM:   8    -0.118270450123E+04   -0.44060E-04   -0.36797E-05  1591   0.848E-03    0.418E-02
RMM:   9    -0.118270448924E+04    0.11986E-04   -0.72440E-05  1562   0.970E-03    0.179E-02
RMM:  10    -0.118270449127E+04   -0.20280E-05   -0.13915E-05  1524   0.506E-03    0.118E-02
RMM:  11    -0.118270449540E+04   -0.41269E-05   -0.32020E-06  1101   0.248E-03    0.544E-03
RMM:  12    -0.118270449595E+04   -0.55333E-06   -0.78129E-07  1026   0.121E-03
  44 F= -.11898322E+04 E0= -.11898303E+04  d E =-.915298E-02  mag=     1.9874
       N       E                     dE             d eps       ncg     rms          rms(c)
DAV:   1    -0.118270319867E+04    0.12967E-02   -0.19261E+00  1536   0.188E+00    0.500E-01
RMM:   2    -0.118270605486E+04   -0.28562E-02   -0.37327E-02  1564   0.259E-01    0.484E-01
RMM:   3    -0.118270610724E+04   -0.52372E-04   -0.49671E-03  1588   0.997E-02    0.316E-01
RMM:   4    -0.118270675586E+04   -0.64863E-03   -0.91643E-04  1837   0.425E-02    0.263E-01
RMM:   5    -0.118270688067E+04   -0.12480E-03   -0.10551E-03  1556   0.385E-02    0.129E-01
RMM:   6    -0.118270713569E+04   -0.25502E-03   -0.27866E-04  1558   0.224E-02    0.786E-02
RMM:   7    -0.118270724796E+04   -0.11227E-03   -0.82724E-05  1773   0.124E-02    0.393E-02
RMM:   8    -0.118270727333E+04   -0.25366E-04   -0.17319E-05  1545   0.586E-03    0.288E-02
RMM:   9    -0.118270726871E+04    0.46199E-05   -0.38526E-05  1554   0.712E-03    0.117E-02
RMM:  10    -0.118270727023E+04   -0.15240E-05   -0.67618E-06  1374   0.361E-03    0.769E-03
RMM:  11    -0.118270727192E+04   -0.16885E-05   -0.14434E-06  1034   0.171E-03    0.369E-03
RMM:  12    -0.118270727205E+04   -0.13370E-06   -0.55570E-07  1017   0.977E-04
  45 F= -.11898345E+04 E0= -.11898324E+04  d E =-.114312E-01  mag=     1.9875
       N       E                     dE             d eps       ncg     rms          rms(c)
DAV:   1    -0.118270512215E+04    0.21498E-02   -0.39904E+00  1568   0.308E+00    0.650E-01
RMM:   2    -0.118271360327E+04   -0.84811E-02   -0.97827E-02  1580   0.419E-01    0.585E-01
RMM:   3    -0.118271448632E+04   -0.88306E-03   -0.14781E-02  1610   0.160E-01    0.420E-01
RMM:   4    -0.118271561573E+04   -0.11294E-02   -0.23520E-03  1785   0.677E-02    0.321E-01
RMM:   5    -0.118271562642E+04   -0.10689E-04   -0.18222E-03  1573   0.525E-02    0.179E-01
RMM:   6    -0.118271612446E+04   -0.49804E-03   -0.79276E-04  1565   0.362E-02    0.873E-02
RMM:   7    -0.118271629087E+04   -0.16641E-03   -0.17332E-04  1930   0.178E-02    0.549E-02
RMM:   8    -0.118271633726E+04   -0.46391E-04   -0.29956E-05  1685   0.696E-03    0.421E-02
RMM:   9    -0.118271633136E+04    0.59023E-05   -0.75066E-05  1572   0.101E-02    0.198E-02
RMM:  10    -0.118271633957E+04   -0.82133E-05   -0.17040E-05  1524   0.553E-03    0.119E-02
RMM:  11    -0.118271634190E+04   -0.23301E-05   -0.32013E-06  1087   0.244E-03    0.921E-03
RMM:  12    -0.118271634183E+04    0.74891E-07   -0.13815E-06  1034   0.146E-03
  46 F= -.11898435E+04 E0= -.11898411E+04  d E =-.900315E-02  mag=     1.9863
       N       E                     dE             d eps       ncg     rms          rms(c)
DAV:   1    -0.118271429508E+04    0.20468E-02   -0.14258E+00  1568   0.185E+00    0.395E-01
RMM:   2    -0.118271700167E+04   -0.27066E-02   -0.33026E-02  1582   0.249E-01    0.374E-01
RMM:   3    -0.118271716659E+04   -0.16493E-03   -0.51694E-03  1614   0.950E-02    0.251E-01
RMM:   4    -0.118271771145E+04   -0.54486E-03   -0.83073E-04  1762   0.406E-02    0.189E-01
RMM:   5    -0.118271775039E+04   -0.38944E-04   -0.64265E-04  1568   0.316E-02    0.108E-01
RMM:   6    -0.118271800619E+04   -0.25580E-03   -0.29621E-04  1568   0.221E-02    0.525E-02
RMM:   7    -0.118271807392E+04   -0.67729E-04   -0.61701E-05  1886   0.106E-02    0.325E-02
RMM:   8    -0.118271809211E+04   -0.18195E-04   -0.10284E-05  1443   0.420E-03    0.248E-02
RMM:   9    -0.118271809148E+04    0.62979E-06   -0.27805E-05  1543   0.613E-03    0.113E-02
RMM:  10    -0.118271809409E+04   -0.26067E-05   -0.59796E-06  1365   0.331E-03    0.691E-03
RMM:  11    -0.118271809477E+04   -0.68200E-06   -0.10400E-06  1021   0.145E-03
  47 F= -.11898452E+04 E0= -.11898426E+04  d E =-.107390E-01  mag=     1.9855
       N       E                     dE             d eps       ncg     rms          rms(c)
DAV:   1    -0.118271960002E+04   -0.15059E-02   -0.26856E+00  1568   0.242E+00    0.448E-01
RMM:   2    -0.118272376376E+04   -0.41637E-02   -0.51383E-02  1584   0.319E-01    0.450E-01
RMM:   3    -0.118272401977E+04   -0.25601E-03   -0.80424E-03  1610   0.124E-01    0.323E-01
RMM:   4    -0.118272503404E+04   -0.10143E-02   -0.14333E-03  1784   0.545E-02    0.257E-01
RMM:   5    -0.118272514642E+04   -0.11238E-03   -0.11714E-03  1554   0.419E-02    0.137E-01
RMM:   6    -0.118272541778E+04   -0.27136E-03   -0.32475E-04  1555   0.244E-02    0.793E-02
RMM:   7    -0.118272564090E+04   -0.22312E-03   -0.16692E-04  1635   0.167E-02    0.385E-02
RMM:   8    -0.118272566685E+04   -0.25949E-04   -0.27234E-05  1699   0.758E-03    0.264E-02
RMM:   9    -0.118272566529E+04    0.15664E-05   -0.27016E-05  1500   0.602E-03    0.155E-02
RMM:  10    -0.118272566866E+04   -0.33688E-05   -0.70280E-06  1288   0.331E-03    0.972E-03
RMM:  11    -0.118272566929E+04   -0.63528E-06   -0.13357E-06  1039   0.150E-03
  48 F= -.11898526E+04 E0= -.11898497E+04  d E =-.737183E-02  mag=     1.9849
       N       E                     dE             d eps       ncg     rms          rms(c)
DAV:   1    -0.118271330607E+04    0.12363E-01   -0.77281E+00  1568   0.409E+00    0.752E-01
RMM:   2    -0.118272652312E+04   -0.13217E-01   -0.14996E-01  1584   0.542E-01    0.730E-01
RMM:   3    -0.118272812230E+04   -0.15992E-02   -0.23814E-02  1611   0.211E-01    0.550E-01
RMM:   4    -0.118272989714E+04   -0.17748E-02   -0.38129E-03  1806   0.903E-02    0.463E-01
RMM:   5    -0.118273000076E+04   -0.10362E-03   -0.32329E-03  1555   0.684E-02    0.238E-01
RMM:   6    -0.118273044358E+04   -0.44282E-03   -0.78576E-04  1557   0.382E-02    0.169E-01
RMM:   7    -0.118273109199E+04   -0.64841E-03   -0.65222E-04  1605   0.318E-02    0.724E-02
RMM:   8    -0.118273118143E+04   -0.89444E-04   -0.97512E-05  1784   0.142E-02    0.469E-02
RMM:   9    -0.118273118441E+04   -0.29782E-05   -0.79312E-05  1545   0.103E-02    0.328E-02
RMM:  10    -0.118273118942E+04   -0.50118E-05   -0.23270E-05  1536   0.586E-03    0.181E-02
RMM:  11    -0.118273119118E+04   -0.17599E-05   -0.55421E-06  1180   0.283E-03    0.190E-02
RMM:  12    -0.118273118961E+04    0.15676E-05   -0.10221E-06  1029   0.145E-03    0.172E-02
RMM:  13    -0.118273118974E+04   -0.12296E-06   -0.67577E-07  1019   0.947E-04
  49 F= -.11898578E+04 E0= -.11898544E+04  d E =-.126097E-01  mag=     1.9839
       N       E                     dE             d eps       ncg     rms          rms(c)
DAV:   1    -0.118273179224E+04   -0.60262E-03   -0.22501E+00  1600   0.216E+00    0.678E-01
RMM:   2    -0.118273560867E+04   -0.38164E-02   -0.46210E-02  1548   0.297E-01    0.957E-01
RMM:   3    -0.118273423715E+04    0.13715E-02   -0.67812E-03  1600   0.117E-01    0.364E-01
RMM:   4    -0.118273564758E+04   -0.14104E-02   -0.11427E-03  1804   0.506E-02    0.319E-01
RMM:   5    -0.118273588404E+04   -0.23646E-03   -0.16032E-03  1561   0.493E-02    0.158E-01
RMM:   6    -0.118273613550E+04   -0.25146E-03   -0.39317E-04  1553   0.271E-02    0.109E-01
RMM:   7    -0.118273632646E+04   -0.19096E-03   -0.14698E-04  1726   0.165E-02    0.495E-02
RMM:   8    -0.118273636852E+04   -0.42062E-04   -0.35692E-05  1615   0.844E-03    0.362E-02
RMM:   9    -0.118273636158E+04    0.69359E-05   -0.58435E-05  1552   0.884E-03    0.197E-02
RMM:  10    -0.118273636104E+04    0.53819E-06   -0.14215E-05  1537   0.505E-03    0.113E-02
RMM:  11    -0.118273636293E+04   -0.18808E-05   -0.33983E-06  1095   0.250E-03    0.684E-03
RMM:  12    -0.118273636324E+04   -0.31386E-06   -0.97113E-07  1024   0.135E-03
  50 F= -.11898627E+04 E0= -.11898591E+04  d E =-.484738E-02  mag=     1.9844
       N       E                     dE             d eps       ncg     rms          rms(c)
DAV:   1    -0.118273638011E+04   -0.17182E-04   -0.81375E-02  1728   0.413E-01    0.132E-01
RMM:   2    -0.118273644704E+04   -0.66929E-04   -0.16266E-03  1546   0.562E-02    0.182E-01
RMM:   3    -0.118273636089E+04    0.86144E-04   -0.24188E-04  1595   0.224E-02    0.694E-02
RMM:   4    -0.118273647316E+04   -0.11227E-03   -0.44671E-05  1722   0.998E-03    0.599E-02
RMM:   5    -0.118273651514E+04   -0.41979E-04   -0.59929E-05  1547   0.968E-03    0.329E-02
RMM:   6    -0.118273653318E+04   -0.18041E-04   -0.14946E-05  1560   0.531E-03    0.263E-02
RMM:   7    -0.118273653937E+04   -0.61909E-05   -0.47754E-06  1155   0.299E-03    0.187E-02
RMM:   8    -0.118273654116E+04   -0.17898E-05   -0.17104E-06  1039   0.170E-03    0.180E-02
RMM:   9    -0.118273654155E+04   -0.39062E-06   -0.16208E-06  1037   0.132E-03
  51 F= -.11898628E+04 E0= -.11898592E+04  d E =-.496631E-02  mag=     1.9846
       N       E                     dE             d eps       ncg     rms          rms(c)
DAV:   1    -0.118273659347E+04   -0.52304E-04   -0.84826E-01  1760   0.150E+00    0.324E-01
RMM:   2    -0.118273841049E+04   -0.18170E-02   -0.22374E-02  1559   0.205E-01    0.379E-01
RMM:   3    -0.118273834457E+04    0.65924E-04   -0.37828E-03  1609   0.778E-02    0.210E-01
RMM:   4    -0.118273881326E+04   -0.46869E-03   -0.52547E-04  1741   0.321E-02    0.172E-01
RMM:   5    -0.118273891715E+04   -0.10390E-03   -0.50607E-04  1566   0.281E-02    0.959E-02
RMM:   6    -0.118273907856E+04   -0.16141E-03   -0.15330E-04  1573   0.167E-02    0.538E-02
RMM:   7    -0.118273917526E+04   -0.96692E-04   -0.72027E-05  1626   0.111E-02    0.254E-02
RMM:   8    -0.118273918130E+04   -0.60464E-05   -0.12702E-05  1525   0.520E-03    0.154E-02
RMM:   9    -0.118273917921E+04    0.20910E-05   -0.15088E-05  1517   0.464E-03    0.111E-02
RMM:  10    -0.118273917997E+04   -0.76088E-06   -0.24593E-06  1060   0.224E-03
  52 F= -.11898655E+04 E0= -.11898619E+04  d E =-.273988E-02  mag=     1.9839
       N       E                     dE             d eps       ncg     rms          rms(c)
DAV:   1    -0.118273857483E+04    0.60438E-03   -0.34128E-01  1760   0.950E-01    0.209E-01
RMM:   2    -0.118273922276E+04   -0.64793E-03   -0.89746E-03  1560   0.130E-01    0.247E-01
RMM:   3    -0.118273919156E+04    0.31198E-04   -0.15148E-03  1609   0.493E-02    0.133E-01
RMM:   4    -0.118273940789E+04   -0.21633E-03   -0.21771E-04  1734   0.206E-02    0.109E-01
RMM:   5    -0.118273949949E+04   -0.91596E-04   -0.20743E-04  1567   0.180E-02    0.610E-02
RMM:   6    -0.118273957819E+04   -0.78710E-04   -0.61389E-05  1557   0.106E-02    0.373E-02
RMM:   7    -0.118273961611E+04   -0.37916E-04   -0.29676E-05  1598   0.713E-03    0.171E-02
RMM:   8    -0.118273961902E+04   -0.29065E-05   -0.52727E-06  1245   0.334E-03    0.110E-02
RMM:   9    -0.118273961800E+04    0.10147E-05   -0.69111E-06  1392   0.313E-03    0.810E-03
RMM:  10    -0.118273961841E+04   -0.41045E-06   -0.11972E-06  1029   0.156E-03
  53 F= -.11898660E+04 E0= -.11898623E+04  d E =-.324602E-02  mag=     1.9834
       N       E                     dE             d eps       ncg     rms          rms(c)
DAV:   1    -0.118274083433E+04   -0.12163E-02   -0.82403E-01  1568   0.133E+00    0.335E-01
RMM:   2    -0.118274192477E+04   -0.10904E-02   -0.15089E-02  1561   0.178E-01    0.476E-01
RMM:   3    -0.118274151742E+04    0.40735E-03   -0.25558E-03  1597   0.720E-02    0.208E-01
RMM:   4    -0.118274208624E+04   -0.56882E-03   -0.47231E-04  1779   0.320E-02    0.158E-01
RMM:   5    -0.118274221891E+04   -0.13267E-03   -0.50187E-04  1560   0.279E-02    0.887E-02
RMM:   6    -0.118274240972E+04   -0.19080E-03   -0.16980E-04  1561   0.176E-02    0.613E-02
RMM:   7    -0.118274246780E+04   -0.58085E-04   -0.52495E-05  1724   0.968E-03    0.309E-02
RMM:   8    -0.118274247888E+04   -0.11077E-04   -0.93531E-06  1464   0.429E-03    0.277E-02
RMM:   9    -0.118274248141E+04   -0.25315E-05   -0.19755E-05  1530   0.492E-03    0.238E-02
RMM:  10    -0.118274248154E+04   -0.13195E-06   -0.10094E-05  1200   0.329E-03    0.201E-02
RMM:  11    -0.118274247479E+04    0.67562E-05   -0.15288E-05  1164   0.323E-03    0.216E-02
RMM:  12    -0.118274247725E+04   -0.24646E-05   -0.46490E-06  1088   0.213E-03    0.148E-02
RMM:  13    -0.118274247976E+04   -0.25039E-05   -0.33182E-06  1052   0.185E-03    0.588E-03
RMM:  14    -0.118274248203E+04   -0.22757E-05   -0.12471E-06  1012   0.111E-03    0.513E-03
RMM:  15    -0.118274248248E+04   -0.44824E-06   -0.19244E-06  1014   0.111E-03
  54 F= -.11898688E+04 E0= -.11898651E+04  d E =-.275036E-02  mag=     1.9835
       N       E                     dE             d eps       ncg     rms          rms(c)
DAV:   1    -0.118274240599E+04    0.76038E-04   -0.29264E-01  1632   0.795E-01    0.198E-01
RMM:   2    -0.118274272413E+04   -0.31813E-03   -0.53527E-03  1561   0.106E-01    0.286E-01
RMM:   3    -0.118274253242E+04    0.19171E-03   -0.90836E-04  1596   0.432E-02    0.124E-01
RMM:   4    -0.118274276443E+04   -0.23201E-03   -0.16901E-04  1756   0.193E-02    0.950E-02
RMM:   5    -0.118274288353E+04   -0.11910E-03   -0.18261E-04  1562   0.169E-02    0.510E-02
RMM:   6    -0.118274296743E+04   -0.83903E-04   -0.60933E-05  1546   0.107E-02    0.265E-02
RMM:   7    -0.118274299192E+04   -0.24494E-04   -0.18352E-05  1649   0.581E-03    0.170E-02
RMM:   8    -0.118274299331E+04   -0.13818E-05   -0.34169E-06  1085   0.261E-03    0.146E-02
RMM:   9    -0.118274299298E+04    0.32652E-06   -0.75249E-06  1391   0.313E-03
  55 F= -.11898692E+04 E0= -.11898655E+04  d E =-.319578E-02  mag=     1.9835
       N       E                     dE             d eps       ncg     rms          rms(c)
DAV:   1    -0.118274384700E+04   -0.85370E-03   -0.89759E-01  1536   0.125E+00    0.406E-01
RMM:   2    -0.118274507798E+04   -0.12310E-02   -0.15856E-02  1561   0.170E-01    0.604E-01
RMM:   3    -0.118274414689E+04    0.93109E-03   -0.21482E-03  1587   0.694E-02    0.205E-01
RMM:   4    -0.118274508609E+04   -0.93921E-03   -0.51025E-04  1711   0.331E-02    0.169E-01
RMM:   5    -0.118274519512E+04   -0.10903E-03   -0.44037E-04  1558   0.259E-02    0.887E-02
RMM:   6    -0.118274540102E+04   -0.20590E-03   -0.15864E-04  1557   0.167E-02    0.435E-02
RMM:   7    -0.118274547260E+04   -0.71580E-04   -0.57890E-05  1666   0.979E-03    0.287E-02
RMM:   8    -0.118274547623E+04   -0.36272E-05   -0.89536E-06  1501   0.430E-03    0.258E-02
RMM:   9    -0.118274547387E+04    0.23575E-05   -0.47697E-06  1144   0.269E-03    0.259E-02
RMM:  10    -0.118274546314E+04    0.10728E-04   -0.11315E-06  1026   0.155E-03    0.258E-02
RMM:  11    -0.118274546212E+04    0.10232E-05   -0.38636E-07  1013   0.843E-04    0.259E-02
RMM:  12    -0.118274546086E+04    0.12625E-05   -0.46986E-05  1187   0.482E-03    0.220E-02
RMM:  13    -0.118274537343E+04    0.87426E-04   -0.10169E-04  1248   0.615E-03    0.147E-02
RMM:  14    -0.118274547088E+04   -0.97455E-04   -0.10008E-05  1350   0.405E-03    0.106E-02
RMM:  15    -0.118274546869E+04    0.21952E-05   -0.87246E-06  1073   0.235E-03    0.994E-03
RMM:  16    -0.118274545888E+04    0.98050E-05   -0.19263E-05  1107   0.278E-03    0.472E-03
RMM:  17    -0.118274547565E+04   -0.16763E-04   -0.26961E-06  1024   0.141E-03    0.617E-03
RMM:  18    -0.118274547564E+04    0.48822E-08   -0.32369E-06   967   0.123E-03
  56 F= -.11898717E+04 E0= -.11898679E+04  d E =-.245300E-02  mag=     1.9836
       N       E                     dE             d eps       ncg     rms          rms(c)
DAV:   1    -0.118274532773E+04    0.14792E-03   -0.42068E-01  1536   0.860E-01    0.281E-01
RMM:   2    -0.118274580899E+04   -0.48126E-03   -0.73757E-03  1560   0.117E-01    0.417E-01
RMM:   3    -0.118274534183E+04    0.46716E-03   -0.10092E-03  1582   0.477E-02    0.140E-01
RMM:   4    -0.118274585021E+04   -0.50837E-03   -0.23865E-04  1707   0.226E-02    0.116E-01
RMM:   5    -0.118274594107E+04   -0.90865E-04   -0.20501E-04  1556   0.178E-02    0.613E-02
RMM:   6    -0.118274604804E+04   -0.10697E-03   -0.74761E-05  1555   0.115E-02    0.303E-02
RMM:   7    -0.118274608486E+04   -0.36823E-04   -0.28364E-05  1614   0.693E-03    0.166E-02
RMM:   8    -0.118274608733E+04   -0.24615E-05   -0.52780E-06  1274   0.332E-03    0.117E-02
RMM:   9    -0.118274608617E+04    0.11553E-05   -0.54276E-06  1338   0.284E-03    0.706E-03
RMM:  10    -0.118274608677E+04   -0.60102E-06   -0.10563E-06  1027   0.147E-03
  57 F= -.11898723E+04 E0= -.11898685E+04  d E =-.304396E-02  mag=     1.9837
       N       E                     dE             d eps       ncg     rms          rms(c)
DAV:   1    -0.118274689815E+04   -0.81198E-03   -0.96577E-01  1536   0.130E+00    0.404E-01
RMM:   2    -0.118274830051E+04   -0.14024E-02   -0.17340E-02  1568   0.178E-01    0.619E-01
RMM:   3    -0.118274732838E+04    0.97212E-03   -0.23773E-03  1580   0.721E-02    0.223E-01
RMM:   4    -0.118274833957E+04   -0.10112E-02   -0.56342E-04  1697   0.344E-02    0.181E-01
RMM:   5    -0.118274847343E+04   -0.13386E-03   -0.44025E-04  1560   0.259E-02    0.102E-01
RMM:   6    -0.118274865573E+04   -0.18230E-03   -0.13984E-04  1587   0.157E-02    0.653E-02
RMM:   7    -0.118274876092E+04   -0.10519E-03   -0.81099E-05  1629   0.112E-02    0.355E-02
RMM:   8    -0.118274877039E+04   -0.94762E-05   -0.15320E-05  1590   0.526E-03    0.328E-02
RMM:   9    -0.118274876952E+04    0.87027E-06   -0.13382E-05  1440   0.404E-03    0.306E-02
RMM:  10    -0.118274876790E+04    0.16211E-05   -0.10733E-05  1178   0.305E-03    0.276E-02
RMM:  11    -0.118274874458E+04    0.23327E-04   -0.39375E-05  1262   0.466E-03    0.204E-02
RMM:  12    -0.118274875565E+04   -0.11074E-04   -0.11517E-05  1251   0.299E-03    0.106E-02
RMM:  13    -0.118274876167E+04   -0.60205E-05   -0.66710E-06  1071   0.238E-03    0.788E-03
RMM:  14    -0.118274876575E+04   -0.40771E-05   -0.43355E-06  1057   0.169E-03    0.753E-03
RMM:  15    -0.118274876839E+04   -0.26466E-05   -0.33994E-06  1035   0.127E-03    0.549E-03
RMM:  16    -0.118274876802E+04    0.36864E-06   -0.45900E-06   889   0.130E-03
  58 F= -.11898752E+04 E0= -.11898713E+04  d E =-.293653E-02  mag=     1.9831
       N       E                     dE             d eps       ncg     rms          rms(c)
DAV:   1    -0.118274498882E+04    0.37796E-02   -0.22394E+00  1536   0.198E+00    0.618E-01
RMM:   2    -0.118274881335E+04   -0.38245E-02   -0.41061E-02  1568   0.272E-01    0.100E+00
RMM:   3    -0.118274678811E+04    0.20252E-02   -0.56499E-03  1584   0.110E-01    0.341E-01
RMM:   4    -0.118274863457E+04   -0.18465E-02   -0.12435E-03  1712   0.517E-02    0.283E-01
RMM:   5    -0.118274880072E+04   -0.16616E-03   -0.10414E-03  1557   0.394E-02    0.158E-01
RMM:   6    -0.118274912799E+04   -0.32726E-03   -0.33434E-04  1579   0.240E-02    0.101E-01
RMM:   7    -0.118274935789E+04   -0.22990E-03   -0.19037E-04  1644   0.172E-02    0.431E-02
RMM:   8    -0.118274938256E+04   -0.24676E-04   -0.31871E-05  1641   0.790E-03    0.401E-02
RMM:   9    -0.118274938124E+04    0.13266E-05   -0.16925E-05  1503   0.502E-03    0.361E-02
RMM:  10    -0.118274937771E+04    0.35314E-05   -0.73929E-06  1172   0.301E-03    0.361E-02
RMM:  11    -0.118274933338E+04    0.44328E-04   -0.82811E-06  1096   0.298E-03    0.371E-02
RMM:  12    -0.118274938038E+04   -0.47002E-04   -0.92628E-06  1081   0.268E-03    0.349E-02
RMM:  13    -0.118274915773E+04    0.22265E-03   -0.28921E-04  1642   0.115E-02    0.255E-02
RMM:  14    -0.118274936276E+04   -0.20502E-03   -0.31879E-05  1787   0.660E-03    0.146E-02
RMM:  15    -0.118274936607E+04   -0.33176E-05   -0.10082E-05  1096   0.289E-03    0.953E-03
RMM:  16    -0.118274936854E+04   -0.24650E-05   -0.12956E-05  1105   0.241E-03    0.119E-02
RMM:  17    -0.118274937591E+04   -0.73682E-05   -0.41573E-06  1047   0.144E-03    0.131E-02
RMM:  18    -0.118274935025E+04    0.25660E-04   -0.26017E-05  1125   0.344E-03    0.698E-03
RMM:  19    -0.118274938177E+04   -0.31521E-04   -0.25284E-06  1028   0.176E-03    0.342E-03
RMM:  20    -0.118274938260E+04   -0.83091E-06   -0.26400E-06   896   0.110E-03
  59 F= -.11898762E+04 E0= -.11898722E+04  d E =-.392690E-02  mag=     1.9821
       N       E                     dE             d eps       ncg     rms          rms(c)
DAV:   1    -0.118274936209E+04    0.19679E-04   -0.13786E-01  1696   0.490E-01    0.158E-01
RMM:   2    -0.118274951224E+04   -0.15015E-03   -0.24263E-03  1569   0.669E-02    0.238E-01
RMM:   3    -0.118274927719E+04    0.23504E-03   -0.33618E-04  1579   0.273E-02    0.872E-02
RMM:   4    -0.118274952218E+04   -0.24499E-03   -0.84993E-05  1677   0.132E-02    0.733E-02
RMM:   5    -0.118274956564E+04   -0.43452E-04   -0.61456E-05  1543   0.988E-03    0.415E-02
RMM:   6    -0.118274959898E+04   -0.33340E-04   -0.20897E-05  1557   0.594E-03    0.264E-02
RMM:   7    -0.118274961893E+04   -0.19948E-04   -0.11738E-05  1466   0.435E-03    0.183E-02
RMM:   8    -0.118274961918E+04   -0.25606E-06   -0.22985E-06  1066   0.200E-03
  60 F= -.11898763E+04 E0= -.11898724E+04  d E =-.407205E-02  mag=     1.9823
       N       E                     dE             d eps       ncg     rms          rms(c)
DAV:   1    -0.118275058999E+04   -0.97106E-03   -0.64977E-01  1536   0.105E+00    0.227E-01
RMM:   2    -0.118275118476E+04   -0.59477E-03   -0.99462E-03  1548   0.138E-01    0.184E-01
RMM:   3    -0.118275150616E+04   -0.32140E-03   -0.14821E-03  1576   0.568E-02    0.134E-01
RMM:   4    -0.118275153902E+04   -0.32861E-04   -0.46958E-04  1653   0.304E-02    0.794E-02
RMM:   5    -0.118275165218E+04   -0.11316E-03   -0.10404E-04  1663   0.141E-02    0.520E-02
RMM:   6    -0.118275173791E+04   -0.85733E-04   -0.60583E-05  1568   0.984E-03    0.513E-02
RMM:   7    -0.118275173493E+04    0.29842E-05   -0.19527E-05  1622   0.543E-03    0.179E-02
RMM:   8    -0.118275174704E+04   -0.12109E-04   -0.63875E-06  1298   0.323E-03    0.157E-02
RMM:   9    -0.118275174653E+04    0.50927E-06   -0.15754E-06  1040   0.163E-03
  61 F= -.11898785E+04 E0= -.11898744E+04  d E =-.214885E-02  mag=     1.9822
       N       E                     dE             d eps       ncg     rms          rms(c)
DAV:   1    -0.118275104706E+04    0.69998E-03   -0.11034E+00  1536   0.137E+00    0.300E-01
RMM:   2    -0.118275215572E+04   -0.11087E-02   -0.17108E-02  1548   0.180E-01    0.241E-01
RMM:   3    -0.118275273237E+04   -0.57665E-03   -0.25336E-03  1578   0.740E-02    0.226E-01
RMM:   4    -0.118275273894E+04   -0.65663E-05   -0.60116E-04  1871   0.331E-02    0.159E-01
RMM:   5    -0.118275286242E+04   -0.12349E-03   -0.31565E-04  1550   0.229E-02    0.102E-01
RMM:   6    -0.118275309953E+04   -0.23711E-03   -0.17451E-04  1558   0.168E-02    0.980E-02
RMM:   7    -0.118275311523E+04   -0.15695E-04   -0.59389E-05  1727   0.921E-03    0.577E-02
RMM:   8    -0.118275309710E+04    0.18127E-04   -0.88191E-06  1403   0.412E-03    0.582E-02
RMM:   9    -0.118275311618E+04   -0.19081E-04   -0.35611E-06  1057   0.204E-03    0.570E-02
RMM:  10    -0.118275313270E+04   -0.16521E-04   -0.82531E-06  1082   0.228E-03    0.578E-02
RMM:  11    -0.118275300545E+04    0.12725E-03   -0.27343E-04  1387   0.106E-02    0.348E-02
RMM:  12    -0.118275296068E+04    0.44767E-04   -0.14019E-04  1281   0.645E-03    0.237E-02
RMM:  13    -0.118275309439E+04   -0.13371E-03   -0.95993E-05  1440   0.840E-03    0.151E-02
RMM:  14    -0.118275312469E+04   -0.30303E-04   -0.25857E-05  1126   0.337E-03    0.344E-02
RMM:  15    -0.118275313287E+04   -0.81802E-05   -0.28585E-05  1137   0.316E-03    0.939E-03
RMM:  16    -0.118275311038E+04    0.22497E-04   -0.42364E-05  1171   0.391E-03    0.658E-03
RMM:  17    -0.118275316089E+04   -0.50514E-04   -0.35645E-06  1043   0.193E-03    0.309E-03
RMM:  18    -0.118275316165E+04   -0.76041E-06   -0.52011E-06   988   0.145E-03
  62 F= -.11898799E+04 E0= -.11898758E+04  d E =-.358406E-02  mag=     1.9825
       N       E                     dE             d eps       ncg     rms          rms(c)
DAV:   1    -0.118275296558E+04    0.19532E-03   -0.17632E-01  1600   0.546E-01    0.119E-01
RMM:   2    -0.118275308348E+04   -0.11791E-03   -0.26990E-03  1548   0.718E-02    0.956E-02
RMM:   3    -0.118275319022E+04   -0.10674E-03   -0.40093E-04  1574   0.297E-02    0.691E-02
RMM:   4    -0.118275322079E+04   -0.30571E-04   -0.12681E-04  1655   0.158E-02    0.461E-02
RMM:   5    -0.118275325334E+04   -0.32551E-04   -0.27656E-05  1608   0.711E-03    0.466E-02
RMM:   6    -0.118275326778E+04   -0.14438E-04   -0.13141E-05  1486   0.493E-03    0.205E-02
RMM:   7    -0.118275328510E+04   -0.17321E-04   -0.76827E-06  1216   0.340E-03    0.925E-03
RMM:   8    -0.118275328844E+04   -0.33400E-05   -0.23176E-06  1060   0.200E-03    0.731E-03
RMM:   9    -0.118275328838E+04    0.62806E-07   -0.11569E-06  1028   0.134E-03
  63 F= -.11898801E+04 E0= -.11898759E+04  d E =-.371597E-02  mag=     1.9825
       N       E                     dE             d eps       ncg     rms          rms(c)
DAV:   1    -0.118275393873E+04   -0.65029E-03   -0.10025E+00  1536   0.130E+00    0.443E-01
RMM:   2    -0.118275553350E+04   -0.15948E-02   -0.18441E-02  1558   0.180E-01    0.734E-01
RMM:   3    -0.118275415075E+04    0.13827E-02   -0.26197E-03  1598   0.742E-02    0.216E-01
RMM:   4    -0.118275540581E+04   -0.12551E-02   -0.55889E-04  1689   0.352E-02    0.185E-01
RMM:   5    -0.118275555913E+04   -0.15331E-03   -0.46604E-04  1556   0.268E-02    0.985E-02
RMM:   6    -0.118275579510E+04   -0.23597E-03   -0.18481E-04  1563   0.176E-02    0.615E-02
RMM:   7    -0.118275586597E+04   -0.70877E-04   -0.70247E-05  1725   0.104E-02    0.338E-02
RMM:   8    -0.118275587620E+04   -0.10232E-04   -0.99665E-06  1503   0.462E-03    0.309E-02
RMM:   9    -0.118275587385E+04    0.23502E-05   -0.59334E-06  1243   0.292E-03    0.302E-02
RMM:  10    -0.118275586758E+04    0.62730E-05   -0.90514E-07  1022   0.141E-03    0.304E-02
RMM:  11    -0.118275583917E+04    0.28411E-04   -0.75122E-06  1137   0.273E-03    0.347E-02
RMM:  12    -0.118275579430E+04    0.44867E-04   -0.22930E-05  1313   0.384E-03    0.407E-02
RMM:  13    -0.118275566533E+04    0.12897E-03   -0.31070E-04  1532   0.124E-02    0.464E-02
RMM:  14    -0.118275578687E+04   -0.12154E-03   -0.43740E-05  1237   0.447E-03    0.199E-02
RMM:  15    -0.118275586846E+04   -0.81584E-04   -0.16901E-05  1456   0.469E-03    0.180E-02
RMM:  16    -0.118275586633E+04    0.21301E-05   -0.11631E-05  1084   0.260E-03    0.127E-02
RMM:  17    -0.118275587393E+04   -0.76023E-05   -0.54461E-06  1064   0.196E-03    0.840E-03
RMM:  18    -0.118275584975E+04    0.24175E-04   -0.27763E-05  1095   0.332E-03    0.396E-03
RMM:  19    -0.118275587027E+04   -0.20517E-04   -0.62310E-06   955   0.168E-03    0.317E-03
RMM:  20    -0.118275588138E+04   -0.11109E-04   -0.78764E-07   896   0.101E-03    0.160E-03
RMM:  21    -0.118275588264E+04   -0.12571E-05   -0.16231E-07   653   0.484E-04    0.138E-03
RMM:  22    -0.118275588292E+04   -0.28713E-06   -0.34781E-08   563   0.372E-04
  64 F= -.11898827E+04 E0= -.11898785E+04  d E =-.262397E-02  mag=     1.9823
       N       E                     dE             d eps       ncg     rms          rms(c)
DAV:   1    -0.118275471744E+04    0.11652E-02   -0.11989E+00  1536   0.143E+00    0.487E-01
RMM:   2    -0.118275671103E+04   -0.19936E-02   -0.22182E-02  1558   0.197E-01    0.827E-01
RMM:   3    -0.118275506435E+04    0.16467E-02   -0.31567E-03  1599   0.811E-02    0.236E-01
RMM:   4    -0.118275649575E+04   -0.14314E-02   -0.65448E-04  1686   0.384E-02    0.205E-01
RMM:   5    -0.118275665665E+04   -0.16090E-03   -0.57349E-04  1556   0.295E-02    0.107E-01
RMM:   6    -0.118275691658E+04   -0.25993E-03   -0.22137E-04  1563   0.192E-02    0.680E-02
RMM:   7    -0.118275700408E+04   -0.87500E-04   -0.86225E-05  1721   0.116E-02    0.330E-02
RMM:   8    -0.118275701914E+04   -0.15057E-04   -0.12297E-05  1548   0.521E-03    0.284E-02
RMM:   9    -0.118275701682E+04    0.23141E-05   -0.67848E-06  1357   0.324E-03    0.268E-02
RMM:  10    -0.118275700339E+04    0.13434E-04   -0.20470E-06  1046   0.198E-03    0.255E-02
RMM:  11    -0.118275698987E+04    0.13525E-04   -0.37470E-06  1055   0.174E-03    0.264E-02
RMM:  12    -0.118275689292E+04    0.96948E-04   -0.54172E-05  1413   0.544E-03    0.248E-02
RMM:  13    -0.118275700645E+04   -0.11354E-03   -0.89781E-06  1123   0.347E-03    0.240E-02
RMM:  14    -0.118275693151E+04    0.74944E-04   -0.11704E-04  1266   0.723E-03    0.247E-02
RMM:  15    -0.118275691435E+04    0.17158E-04   -0.75890E-05  1301   0.537E-03    0.121E-02
RMM:  16    -0.118275701497E+04   -0.10061E-03   -0.24558E-05  1187   0.501E-03    0.121E-02
RMM:  17    -0.118275702190E+04   -0.69320E-05   -0.11126E-06  1015   0.119E-03    0.902E-03
[...]
RMM:   3    -0.118377987318E+04   -0.15452E-03   -0.39409E-03  1590   0.104E-01    0.192E-01
RMM:   4    -0.118377978931E+04    0.83870E-04   -0.96480E-04  1808   0.483E-02    0.156E-01
RMM:   5    -0.118377984488E+04   -0.55572E-04   -0.12619E-03  1536   0.463E-02    0.527E-02
RMM:   6    -0.118377991466E+04   -0.69777E-04   -0.25182E-04  1626   0.237E-02    0.398E-02
RMM:   7    -0.118377989097E+04    0.23691E-04   -0.65607E-05  1553   0.115E-02    0.226E-02
RMM:   8    -0.118377989912E+04   -0.81530E-05   -0.45186E-05  1541   0.836E-03    0.130E-02
RMM:   9    -0.118377989901E+04    0.10789E-06   -0.74280E-06  1592   0.413E-03
 205 F= -.11910168E+04 E0= -.11910137E+04  d E =-.396225E-02  mag=     0.0837
       N       E                     dE             d eps       ncg     rms          rms(c)
DAV:   1    -0.118378009005E+04   -0.19093E-03   -0.12205E-01  1536   0.587E-01    0.740E-02
RMM:   2    -0.118378021761E+04   -0.12756E-03   -0.19750E-03  1555   0.761E-02    0.653E-02
RMM:   3    -0.118378022344E+04   -0.58225E-05   -0.36998E-04  1583   0.321E-02    0.587E-02
RMM:   4    -0.118378021785E+04    0.55825E-05   -0.10100E-04  1766   0.156E-02    0.478E-02
RMM:   5    -0.118378023324E+04   -0.15390E-04   -0.13031E-04  1536   0.148E-02    0.170E-02
RMM:   6    -0.118378023892E+04   -0.56731E-05   -0.24240E-05  1677   0.738E-03    0.135E-02
RMM:   7    -0.118378023685E+04    0.20710E-05   -0.77852E-06  1465   0.374E-03    0.720E-03
RMM:   8    -0.118378023796E+04   -0.11148E-05   -0.38934E-06  1313   0.252E-03    0.405E-03
RMM:   9    -0.118378023792E+04    0.40302E-07   -0.66782E-07  1003   0.127E-03
 206 F= -.11910171E+04 E0= -.11910140E+04  d E =-.424968E-02  mag=     0.0831
       N       E                     dE             d eps       ncg     rms          rms(c)
DAV:   1    -0.118378223012E+04   -0.19922E-02   -0.13705E+00  1536   0.201E+00    0.247E-01
RMM:   2    -0.118378389518E+04   -0.16651E-02   -0.23137E-02  1557   0.260E-01    0.216E-01
RMM:   3    -0.118378400213E+04   -0.10696E-03   -0.43613E-03  1579   0.109E-01    0.180E-01
RMM:   4    -0.118378394638E+04    0.55750E-04   -0.12110E-03  1705   0.542E-02    0.161E-01
RMM:   5    -0.118378400490E+04   -0.58514E-04   -0.86863E-04  1544   0.399E-02    0.655E-02
RMM:   6    -0.118378407203E+04   -0.67132E-04   -0.22148E-04  1731   0.213E-02    0.487E-02
RMM:   7    -0.118378406831E+04    0.37179E-05   -0.13468E-04  1542   0.142E-02    0.226E-02
RMM:   8    -0.118378408630E+04   -0.17990E-04   -0.23678E-05  1619   0.704E-03    0.145E-02
RMM:   9    -0.118378408353E+04    0.27766E-05   -0.85864E-06  1487   0.400E-03    0.973E-03
RMM:  10    -0.118378408421E+04   -0.68340E-06   -0.15652E-05  1491   0.460E-03    0.570E-03
RMM:  11    -0.118378408366E+04    0.55189E-06   -0.21092E-06  1081   0.210E-03
 207 F= -.11910208E+04 E0= -.11910177E+04  d E =-.366953E-02  mag=     0.0805
       N       E                     dE             d eps       ncg     rms          rms(c)
DAV:   1    -0.118378418688E+04   -0.10267E-03   -0.95870E-02  1664   0.533E-01    0.653E-02
RMM:   2    -0.118378429859E+04   -0.11171E-03   -0.16223E-03  1558   0.688E-02    0.572E-02
RMM:   3    -0.118378430331E+04   -0.47226E-05   -0.30300E-04  1578   0.287E-02    0.477E-02
RMM:   4    -0.118378430243E+04    0.88423E-06   -0.91555E-05  1675   0.148E-02    0.419E-02
RMM:   5    -0.118378430913E+04   -0.67022E-05   -0.59744E-05  1547   0.105E-02    0.170E-02
RMM:   6    -0.118378431350E+04   -0.43666E-05   -0.14931E-05  1711   0.551E-03    0.130E-02
RMM:   7    -0.118378431321E+04    0.28668E-06   -0.85953E-06  1399   0.363E-03
 208 F= -.11910210E+04 E0= -.11910179E+04  d E =-.385332E-02  mag=     0.0800
       N       E                     dE             d eps       ncg     rms          rms(c)
DAV:   1    -0.118378649220E+04   -0.21787E-02   -0.10375E+00  1536   0.177E+00    0.208E-01
RMM:   2    -0.118378774587E+04   -0.12537E-02   -0.17553E-02  1572   0.228E-01    0.190E-01
RMM:   3    -0.118378790108E+04   -0.15521E-03   -0.33145E-03  1592   0.935E-02    0.173E-01
RMM:   4    -0.118378785002E+04    0.51053E-04   -0.77879E-04  1796   0.431E-02    0.146E-01
RMM:   5    -0.118378791895E+04   -0.68929E-04   -0.10067E-03  1537   0.414E-02    0.516E-02
RMM:   6    -0.118378799406E+04   -0.75108E-04   -0.20938E-04  1573   0.212E-02    0.374E-02
RMM:   7    -0.118378798335E+04    0.10712E-04   -0.51286E-05  1541   0.103E-02    0.216E-02
RMM:   8    -0.118378799565E+04   -0.12303E-04   -0.21068E-05  1570   0.635E-03    0.125E-02
RMM:   9    -0.118378799465E+04    0.10017E-05   -0.11735E-05  1484   0.427E-03    0.689E-03
RMM:  10    -0.118378799535E+04   -0.69616E-06   -0.82923E-06  1403   0.350E-03
 209 F= -.11910245E+04 E0= -.11910215E+04  d E =-.352914E-02  mag=     0.0784
       N       E                     dE             d eps       ncg     rms          rms(c)
DAV:   1    -0.118378826857E+04   -0.27392E-03   -0.82450E-01  1536   0.157E+00    0.185E-01
RMM:   2    -0.118378924662E+04   -0.97805E-03   -0.13928E-02  1570   0.203E-01    0.170E-01
RMM:   3    -0.118378935915E+04   -0.11253E-03   -0.26359E-03  1590   0.833E-02    0.154E-01
RMM:   4    -0.118378931140E+04    0.47749E-04   -0.62464E-04  1794   0.386E-02    0.129E-01
RMM:   5    -0.118378936787E+04   -0.56475E-04   -0.83765E-04  1537   0.375E-02    0.457E-02
RMM:   6    -0.118378942673E+04   -0.58851E-04   -0.16911E-04  1581   0.190E-02    0.336E-02
RMM:   7    -0.118378941807E+04    0.86579E-05   -0.41632E-05  1541   0.921E-03    0.195E-02
RMM:   8    -0.118378942848E+04   -0.10416E-04   -0.16784E-05  1563   0.568E-03    0.112E-02
RMM:   9    -0.118378942781E+04    0.67422E-06   -0.92656E-06  1436   0.382E-03
 210 F= -.11910258E+04 E0= -.11910229E+04  d E =-.482367E-02  mag=     0.0772
       N       E                     dE             d eps       ncg     rms          rms(c)
DAV:   1    -0.118379187628E+04   -0.24478E-02   -0.12302E+00  1536   0.190E+00    0.228E-01
RMM:   2    -0.118379332572E+04   -0.14494E-02   -0.20440E-02  1560   0.248E-01    0.205E-01
RMM:   3    -0.118379342499E+04   -0.99268E-04   -0.38189E-03  1588   0.102E-01    0.178E-01
RMM:   4    -0.118379334073E+04    0.84258E-04   -0.17610E-03  1585   0.622E-02    0.799E-02
RMM:   5    -0.118379349173E+04   -0.15100E-03   -0.55405E-04  1622   0.332E-02    0.479E-02
RMM:   6    -0.118379349467E+04   -0.29447E-05   -0.92611E-05  1827   0.142E-02    0.476E-02
RMM:   7    -0.118379348504E+04    0.96336E-05   -0.96603E-05  1545   0.115E-02    0.233E-02
RMM:   8    -0.118379350167E+04   -0.16635E-04   -0.14836E-05  1584   0.584E-03    0.139E-02
RMM:   9    -0.118379349856E+04    0.31171E-05   -0.24660E-05  1531   0.580E-03    0.752E-03
RMM:  10    -0.118379349974E+04   -0.11830E-05   -0.75025E-06  1439   0.342E-03    0.534E-03
RMM:  11    -0.118379349919E+04    0.54795E-06   -0.16110E-06  1030   0.168E-03
 211 F= -.11910297E+04 E0= -.11910267E+04  d E =-.384622E-02  mag=     0.0768
       N       E                     dE             d eps       ncg     rms          rms(c)
DAV:   1    -0.118379374542E+04   -0.24568E-03   -0.26604E-01  1536   0.886E-01    0.105E-01
RMM:   2    -0.118379403823E+04   -0.29280E-03   -0.44008E-03  1560   0.115E-01    0.953E-02
RMM:   3    -0.118379405540E+04   -0.17179E-04   -0.82429E-04  1589   0.475E-02    0.824E-02
RMM:   4    -0.118379406043E+04   -0.50281E-05   -0.35278E-04  1587   0.282E-02    0.454E-02
RMM:   5    -0.118379409592E+04   -0.35488E-04   -0.12435E-04  1605   0.159E-02    0.360E-02
RMM:   6    -0.118379409850E+04   -0.25773E-05   -0.28732E-05  1850   0.752E-03    0.222E-02
RMM:   7    -0.118379409395E+04    0.45516E-05   -0.19751E-05  1500   0.515E-03    0.125E-02
RMM:   8    -0.118379409967E+04   -0.57287E-05   -0.63003E-06  1427   0.328E-03    0.723E-03
RMM:   9    -0.118379409898E+04    0.69571E-06   -0.50446E-06  1354   0.275E-03
 212 F= -.11910302E+04 E0= -.11910272E+04  d E =-.434063E-02  mag=     0.0769
       N       E                     dE             d eps       ncg     rms          rms(c)
DAV:   1    -0.118379520147E+04   -0.11018E-02   -0.11475E+00  1568   0.194E+00    0.233E-01
RMM:   2    -0.118379679122E+04   -0.15897E-02   -0.21578E-02  1566   0.251E-01    0.200E-01
RMM:   3    -0.118379691039E+04   -0.11917E-03   -0.41202E-03  1587   0.103E-01    0.164E-01
RMM:   4    -0.118379691212E+04   -0.17342E-05   -0.14830E-03  1596   0.581E-02    0.807E-02
RMM:   5    -0.118379704206E+04   -0.12994E-03   -0.44974E-04  1666   0.300E-02    0.736E-02
RMM:   6    -0.118379704029E+04    0.17760E-05   -0.89707E-05  1938   0.133E-02    0.487E-02
RMM:   7    -0.118379704620E+04   -0.59125E-05   -0.71674E-05  1537   0.101E-02    0.270E-02
RMM:   8    -0.118379707295E+04   -0.26753E-04   -0.18928E-05  1567   0.598E-03    0.158E-02
RMM:   9    -0.118379706998E+04    0.29691E-05   -0.17905E-05  1512   0.503E-03    0.901E-03
RMM:  10    -0.118379707116E+04   -0.11787E-05   -0.94991E-06  1442   0.363E-03    0.558E-03
RMM:  11    -0.118379707105E+04    0.10821E-06   -0.15969E-06  1051   0.173E-03
 213 F= -.11910330E+04 E0= -.11910301E+04  d E =-.283093E-02  mag=     0.0760
       N       E                     dE             d eps       ncg     rms          rms(c)
DAV:   1    -0.118379706385E+04    0.73104E-05   -0.26332E-01  1536   0.928E-01    0.111E-01
RMM:   2    -0.118379740663E+04   -0.34278E-03   -0.49475E-03  1567   0.120E-01    0.957E-02
RMM:   3    -0.118379742976E+04   -0.23133E-04   -0.94280E-04  1586   0.493E-02    0.787E-02
RMM:   4    -0.118379744792E+04   -0.18162E-04   -0.33048E-04  1599   0.276E-02    0.434E-02
RMM:   5    -0.118379747910E+04   -0.31174E-04   -0.10459E-04  1658   0.145E-02    0.403E-02
RMM:   6    -0.118379748227E+04   -0.31762E-05   -0.22877E-05  1813   0.671E-03    0.236E-02
RMM:   7    -0.118379748484E+04   -0.25727E-05   -0.17183E-05  1481   0.506E-03    0.121E-02
RMM:   8    -0.118379749007E+04   -0.52258E-05   -0.39833E-06  1221   0.278E-03    0.741E-03
RMM:   9    -0.118379748944E+04    0.63163E-06   -0.37871E-06  1282   0.234E-03
 214 F= -.11910333E+04 E0= -.11910304E+04  d E =-.317922E-02  mag=     0.0758
       N       E                     dE             d eps       ncg     rms          rms(c)
DAV:   1    -0.118379907409E+04   -0.15840E-02   -0.11616E+00  1536   0.186E+00    0.218E-01
RMM:   2    -0.118380045307E+04   -0.13790E-02   -0.19494E-02  1569   0.243E-01    0.204E-01
RMM:   3    -0.118380062454E+04   -0.17147E-03   -0.36503E-03  1593   0.993E-02    0.185E-01
RMM:   4    -0.118380056615E+04    0.58387E-04   -0.81553E-04  1822   0.447E-02    0.166E-01
RMM:   5    -0.118380058306E+04   -0.16910E-04   -0.11733E-03  1537   0.440E-02    0.611E-02
RMM:   6    -0.118380070263E+04   -0.11957E-03   -0.32166E-04  1544   0.251E-02    0.427E-02
RMM:   7    -0.118380067890E+04    0.23729E-04   -0.71231E-05  1543   0.121E-02    0.241E-02
RMM:   8    -0.118380069626E+04   -0.17358E-04   -0.35405E-05  1544   0.781E-03    0.142E-02
RMM:   9    -0.118380069358E+04    0.26832E-05   -0.17713E-05  1503   0.525E-03    0.770E-03
RMM:  10    -0.118380069442E+04   -0.84126E-06   -0.11638E-05  1438   0.414E-03    0.559E-03
RMM:  11    -0.118380069381E+04    0.60992E-06   -0.20198E-06  1069   0.201E-03
 215 F= -.11910363E+04 E0= -.11910334E+04  d E =-.298981E-02  mag=     0.0760
       N       E                     dE             d eps       ncg     rms          rms(c)
DAV:   1    -0.118380070850E+04   -0.14077E-04   -0.56916E-01  1536   0.130E+00    0.153E-01
RMM:   2    -0.118380135580E+04   -0.64730E-03   -0.95222E-03  1569   0.170E-01    0.143E-01
RMM:   3    -0.118380143205E+04   -0.76256E-04   -0.17877E-03  1594   0.695E-02    0.130E-01
RMM:   4    -0.118380140918E+04    0.22870E-04   -0.40121E-04  1827   0.314E-02    0.116E-01
RMM:   5    -0.118380144022E+04   -0.31036E-04   -0.56292E-04  1537   0.306E-02    0.429E-02
RMM:   6    -0.118380150665E+04   -0.66430E-04   -0.15781E-04  1543   0.176E-02    0.297E-02
RMM:   7    -0.118380149523E+04    0.11420E-04   -0.34545E-05  1539   0.839E-03    0.169E-02
RMM:   8    -0.118380150363E+04   -0.84018E-05   -0.16921E-05  1532   0.542E-03    0.991E-03
RMM:   9    -0.118380150236E+04    0.12663E-05   -0.87249E-06  1420   0.368E-03    0.530E-03
RMM:  10    -0.118380150278E+04   -0.41398E-06   -0.52649E-06  1350   0.279E-03
 216 F= -.11910370E+04 E0= -.11910341E+04  d E =-.364421E-02  mag=     0.0762
       N       E                     dE             d eps       ncg     rms          rms(c)
DAV:   1    -0.118380271259E+04   -0.12102E-02   -0.13675E+00  1536   0.202E+00    0.237E-01
RMM:   2    -0.118380432603E+04   -0.16134E-02   -0.22818E-02  1572   0.262E-01    0.215E-01
RMM:   3    -0.118380450368E+04   -0.17765E-03   -0.43030E-03  1588   0.108E-01    0.198E-01
RMM:   4    -0.118380442740E+04    0.76280E-04   -0.10095E-03  1811   0.496E-02    0.168E-01
RMM:   5    -0.118380446183E+04   -0.34434E-04   -0.13978E-03  1539   0.481E-02    0.592E-02
RMM:   6    -0.118380456021E+04   -0.98380E-04   -0.29930E-04  1573   0.251E-02    0.424E-02
RMM:   7    -0.118380454375E+04    0.16461E-04   -0.76143E-05  1537   0.123E-02    0.240E-02
RMM:   8    -0.118380456330E+04   -0.19552E-04   -0.29171E-05  1557   0.756E-03    0.148E-02
RMM:   9    -0.118380456154E+04    0.17600E-05   -0.18262E-05  1506   0.529E-03    0.790E-03
RMM:  10    -0.118380456259E+04   -0.10450E-05   -0.10869E-05  1460   0.405E-03    0.502E-03
RMM:  11    -0.118380456209E+04    0.49681E-06   -0.17866E-06  1050   0.190E-03
 217 F= -.11910398E+04 E0= -.11910369E+04  d E =-.282822E-02  mag=     0.0764
       N       E                     dE             d eps       ncg     rms          rms(c)
DAV:   1    -0.118380462561E+04   -0.63025E-04   -0.18551E-01  1664   0.744E-01    0.870E-02
RMM:   2    -0.118380482014E+04   -0.19453E-03   -0.30926E-03  1573   0.967E-02    0.792E-02
RMM:   3    -0.118380483919E+04   -0.19047E-04   -0.58547E-04  1589   0.399E-02    0.727E-02
RMM:   4    -0.118380483391E+04    0.52768E-05   -0.13706E-04  1809   0.183E-02    0.619E-02
RMM:   5    -0.118380486196E+04   -0.28046E-04   -0.18479E-04  1538   0.177E-02    0.219E-02
RMM:   6    -0.118380487838E+04   -0.16419E-04   -0.41136E-05  1566   0.931E-03    0.155E-02
RMM:   7    -0.118380487617E+04    0.22079E-05   -0.10156E-05  1479   0.452E-03    0.888E-03
RMM:   8    -0.118380487893E+04   -0.27595E-05   -0.39690E-06  1279   0.274E-03    0.549E-03
RMM:   9    -0.118380487873E+04    0.20442E-06   -0.23138E-06  1109   0.191E-03
 218 F= -.11910400E+04 E0= -.11910371E+04  d E =-.305753E-02  mag=     0.0765
       N       E                     dE             d eps       ncg     rms          rms(c)
DAV:   1    -0.118380546004E+04   -0.58111E-03   -0.15534E+00  1536   0.216E+00    0.255E-01
RMM:   2    -0.118380732964E+04   -0.18696E-02   -0.26243E-02  1580   0.280E-01    0.225E-01
RMM:   3    -0.118380747199E+04   -0.14234E-03   -0.49901E-03  1592   0.116E-01    0.187E-01
RMM:   4    -0.118380747772E+04   -0.57285E-05   -0.21919E-03  1581   0.699E-02    0.779E-02
RMM:   5    -0.118380763594E+04   -0.15823E-03   -0.56741E-04  1692   0.341E-02    0.561E-02
RMM:   6    -0.118380762991E+04    0.60286E-05   -0.89801E-05  1885   0.135E-02    0.473E-02
RMM:   7    -0.118380763099E+04   -0.10755E-05   -0.87352E-05  1539   0.111E-02    0.258E-02
RMM:   8    -0.118380766044E+04   -0.29452E-04   -0.19115E-05  1579   0.629E-03    0.156E-02
RMM:   9    -0.118380765806E+04    0.23753E-05   -0.32203E-05  1531   0.655E-03    0.815E-03
RMM:  10    -0.118380765989E+04   -0.18208E-05   -0.74863E-06  1429   0.341E-03    0.592E-03
RMM:  11    -0.118380765959E+04    0.29045E-06   -0.17996E-06  1059   0.174E-03
 219 F= -.11910425E+04 E0= -.11910396E+04  d E =-.251259E-02  mag=     0.0763
       N       E                     dE             d eps       ncg     rms          rms(c)
DAV:   1    -0.118380769582E+04   -0.35938E-04   -0.20134E-01  1536   0.779E-01    0.913E-02
RMM:   2    -0.118380790939E+04   -0.21356E-03   -0.33920E-03  1581   0.101E-01    0.807E-02
RMM:   3    -0.118380792581E+04   -0.16427E-04   -0.64445E-04  1590   0.417E-02    0.674E-02
RMM:   4    -0.118380794954E+04   -0.23725E-04   -0.28254E-04  1583   0.252E-02    0.282E-02
RMM:   5    -0.118380797625E+04   -0.26711E-04   -0.73198E-05  1646   0.123E-02    0.184E-02
RMM:   6    -0.118380797722E+04   -0.97388E-06   -0.13828E-05  1526   0.550E-03    0.116E-02
RMM:   7    -0.118380798034E+04   -0.31186E-05   -0.65297E-06  1397   0.340E-03    0.104E-02
RMM:   8    -0.118380798178E+04   -0.14414E-05   -0.14945E-06  1039   0.181E-03    0.526E-03
RMM:   9    -0.118380798155E+04    0.22916E-06   -0.24076E-06  1125   0.188E-03
 220 F= -.11910428E+04 E0= -.11910398E+04  d E =-.273492E-02  mag=     0.0763
       N       E                     dE             d eps       ncg     rms          rms(c)
DAV:   1    -0.118380855342E+04   -0.57164E-03   -0.12871E+00  1536   0.195E+00    0.227E-01
RMM:   2    -0.118381011966E+04   -0.15662E-02   -0.22046E-02  1572   0.255E-01    0.205E-01
RMM:   3    -0.118381026466E+04   -0.14500E-03   -0.41609E-03  1595   0.106E-01    0.179E-01
RMM:   4    -0.118381020632E+04    0.58342E-04   -0.97212E-04  1717   0.495E-02    0.164E-01
RMM:   5    -0.118381027873E+04   -0.72411E-04   -0.10333E-03  1537   0.425E-02    0.605E-02
RMM:   6    -0.118381036033E+04   -0.81603E-04   -0.23702E-04  1627   0.225E-02    0.452E-02
RMM:   7    -0.118381034182E+04    0.18511E-04   -0.73766E-05  1539   0.116E-02    0.247E-02
RMM:   8    -0.118381036641E+04   -0.24588E-04   -0.31411E-05  1586   0.758E-03    0.158E-02
RMM:   9    -0.118381036642E+04   -0.12267E-07   -0.13938E-05  1519   0.486E-03    0.816E-03
RMM:  10    -0.118381036796E+04   -0.15327E-05   -0.12867E-05  1467   0.425E-03    0.590E-03
RMM:  11    -0.118381036743E+04    0.52278E-06   -0.21290E-06  1085   0.206E-03
 221 F= -.11910449E+04 E0= -.11910420E+04  d E =-.214574E-02  mag=     0.0769
       N       E                     dE             d eps       ncg     rms          rms(c)
DAV:   1    -0.118381040778E+04   -0.39820E-04   -0.31308E-02  1696   0.303E-01    0.357E-02
RMM:   2    -0.118381043682E+04   -0.29038E-04   -0.53838E-04  1572   0.399E-02    0.323E-02
RMM:   3    -0.118381043737E+04   -0.55551E-06   -0.10092E-04  1593   0.166E-02    0.285E-02
RMM:   4    -0.118381043881E+04   -0.14439E-05   -0.25274E-05  1714   0.784E-03    0.259E-02
RMM:   5    -0.118381044808E+04   -0.92639E-05   -0.29473E-05  1531   0.717E-03    0.911E-03
RMM:   6    -0.118381045074E+04   -0.26583E-05   -0.59637E-06  1447   0.361E-03    0.708E-03
RMM:   7    -0.118381045067E+04    0.71486E-07   -0.17683E-06  1038   0.180E-03
 222 F= -.11910450E+04 E0= -.11910420E+04  d E =-.219093E-02  mag=     0.0771
       N       E                     dE             d eps       ncg     rms          rms(c)
DAV:   1    -0.118381075310E+04   -0.30236E-03   -0.10613E+00  1536   0.178E+00    0.207E-01
RMM:   2    -0.118381201096E+04   -0.12579E-02   -0.17926E-02  1566   0.232E-01    0.190E-01
RMM:   3    -0.118381215415E+04   -0.14318E-03   -0.34050E-03  1600   0.962E-02    0.173E-01
RMM:   4    -0.118381210082E+04    0.53323E-04   -0.78062E-04  1820   0.438E-02    0.152E-01
RMM:   5    -0.118381213052E+04   -0.29700E-04   -0.99273E-04  1540   0.409E-02    0.575E-02
RMM:   6    -0.118381222166E+04   -0.91133E-04   -0.25883E-04  1555   0.228E-02    0.403E-02
RMM:   7    -0.118381220461E+04    0.17042E-04   -0.72981E-05  1538   0.116E-02    0.220E-02
RMM:   8    -0.118381222576E+04   -0.21145E-04   -0.24169E-05  1602   0.688E-03    0.134E-02
RMM:   9    -0.118381222499E+04    0.76848E-06   -0.12329E-05  1482   0.448E-03    0.732E-03
RMM:  10    -0.118381222612E+04   -0.11299E-05   -0.10716E-05  1439   0.392E-03    0.537E-03
RMM:  11    -0.118381222561E+04    0.51101E-06   -0.16496E-06  1035   0.184E-03
 223 F= -.11910466E+04 E0= -.11910436E+04  d E =-.162027E-02  mag=     0.0770
