       N       E                     dE             d eps       ncg     rms          rms(c)
DAV:   1     0.487383970559E+04    0.48738E+04   -0.17168E+05  1872   0.905E+02
DAV:   2    -0.571453414784E+02   -0.49310E+04   -0.44826E+04  2520   0.207E+02
DAV:   3    -0.118892860157E+04   -0.11318E+04   -0.11273E+04  2124   0.110E+02
DAV:   4    -0.123485197052E+04   -0.45923E+02   -0.45684E+02  2052   0.299E+01
DAV:   5    -0.123616150180E+04   -0.13095E+01   -0.13069E+01  2376   0.468E+00    0.625E+01
RMM:   6    -0.122157398419E+04    0.14588E+02   -0.81229E+00  1639   0.336E+00    0.512E+01
RMM:   7    -0.118865646041E+04    0.32918E+02   -0.10811E+02  1633   0.115E+01    0.424E+01
RMM:   8    -0.118111011629E+04    0.75463E+01   -0.31814E+00  1714   0.258E+00    0.307E+01
RMM:   9    -0.117500218199E+04    0.61079E+01   -0.40445E+00  1618   0.231E+00    0.231E+01
RMM:  10    -0.117133570900E+04    0.36665E+01   -0.26157E+01  1594   0.582E+00    0.131E+01
RMM:  11    -0.117252803209E+04   -0.11923E+01   -0.27133E+00  1621   0.224E+00    0.116E+01
RMM:  12    -0.117133595468E+04    0.11921E+01   -0.53046E-01  1662   0.983E-01    0.752E+00
RMM:  13    -0.116996179422E+04    0.13742E+01   -0.14054E+00  1641   0.128E+00    0.362E+00
RMM:  14    -0.116991226034E+04    0.49534E-01   -0.16927E-01  1641   0.537E-01    0.270E+00
RMM:  15    -0.116988804560E+04    0.24215E-01   -0.48675E-02  1662   0.270E-01    0.210E+00
RMM:  16    -0.116985464534E+04    0.33400E-01   -0.89435E-02  1657   0.355E-01    0.132E+00
RMM:  17    -0.116985792444E+04   -0.32791E-02   -0.18239E-02  1643   0.192E-01    0.150E+00
RMM:  18    -0.116985385917E+04    0.40653E-02   -0.66927E-03  1666   0.972E-02    0.882E-01
RMM:  19    -0.116985310288E+04    0.75629E-03   -0.14432E-03  1490   0.527E-02    0.703E-01
RMM:  20    -0.116985273202E+04    0.37086E-03   -0.54716E-03  1623   0.868E-02    0.520E-01
RMM:  21    -0.116985217439E+04    0.55763E-03   -0.92676E-04  1473   0.421E-02    0.250E-01
RMM:  22    -0.116985241442E+04   -0.24004E-03   -0.42520E-04  1215   0.266E-02    0.111E-01
RMM:  23    -0.116985237246E+04    0.41962E-04   -0.14276E-04  1062   0.174E-02
   1 F= -.11768513E+04 E0= -.11768512E+04  d E =-.117685E+04  mag=     1.0010
       N       E                     dE             d eps       ncg     rms          rms(c)
DAV:   1    -0.116984442330E+04    0.79911E-02   -0.13164E+00  1728   0.194E+00    0.315E-01
RMM:   2    -0.116985169814E+04   -0.72748E-02   -0.77814E-02  1749   0.367E-01    0.481E-01
RMM:   3    -0.116985175108E+04   -0.52941E-04   -0.55944E-03  1763   0.101E-01    0.522E-01
RMM:   4    -0.116985176596E+04   -0.14878E-04   -0.59648E-04  1254   0.294E-02
   2 F= -.11768511E+04 E0= -.11768510E+04  d E =0.206522E-03  mag=     0.9992
       N       E                     dE             d eps       ncg     rms          rms(c)
DAV:   1    -0.116985208206E+04   -0.33098E-03   -0.32649E-01  1692   0.969E-01    0.370E-01
RMM:   2    -0.116985399302E+04   -0.19110E-02   -0.20032E-02  1733   0.187E-01    0.224E-01
RMM:   3    -0.116985395379E+04    0.39235E-04   -0.15841E-03  1530   0.556E-02    0.130E-01
RMM:   4    -0.116985396429E+04   -0.10501E-04   -0.42816E-04  1208   0.259E-02
   3 F= -.11768531E+04 E0= -.11768530E+04  d E =-.179061E-02  mag=     0.9991
       N       E                     dE             d eps       ncg     rms          rms(c)
DAV:   1    -0.116984982886E+04    0.41249E-02   -0.65317E-01  1800   0.144E+00    0.277E-01
RMM:   2    -0.116985379114E+04   -0.39623E-02   -0.45784E-02  1703   0.248E-01    0.338E-01
RMM:   3    -0.116985365061E+04    0.14053E-03   -0.25106E-03  1521   0.647E-02    0.348E-01
RMM:   4    -0.116985369358E+04   -0.42964E-04   -0.35138E-04  1136   0.223E-02
   4 F= -.11768532E+04 E0= -.11768531E+04  d E =-.110212E-03  mag=     0.9991
       N       E                     dE             d eps       ncg     rms          rms(c)
DAV:   1    -0.116985324205E+04    0.40856E-03   -0.19958E-01  1800   0.777E-01    0.138E-01
RMM:   2    -0.116985458823E+04   -0.13462E-02   -0.13908E-02  1677   0.151E-01    0.122E-01
RMM:   3    -0.116985454976E+04    0.38475E-04   -0.75104E-04  1231   0.386E-02
   5 F= -.11768539E+04 E0= -.11768538E+04  d E =-.764908E-03  mag=     0.9991
