       N       E                     dE             d eps       ncg     rms          rms(c)
DAV:   1     0.466476599041E+04    0.46648E+04   -0.17837E+05  1888   0.945E+02
DAV:   2    -0.897634063230E+02   -0.47545E+04   -0.43396E+04  2400   0.212E+02
DAV:   3    -0.120141052686E+04   -0.11116E+04   -0.11045E+04  1984   0.110E+02
DAV:   4    -0.124803535107E+04   -0.46625E+02   -0.46348E+02  1952   0.299E+01
DAV:   5    -0.124918243757E+04   -0.11471E+01   -0.11438E+01  2304   0.437E+00    0.768E+01
RMM:   6    -0.123082325909E+04    0.18359E+02   -0.44115E+01  1645   0.741E+00    0.566E+01
RMM:   7    -0.121694716737E+04    0.13876E+02   -0.98737E+00  1549   0.424E+00    0.451E+01
RMM:   8    -0.119526369135E+04    0.21683E+02   -0.23260E+01  1599   0.614E+00    0.313E+01
RMM:   9    -0.117882096621E+04    0.16443E+02   -0.30033E+01  1572   0.707E+00    0.208E+01
RMM:  10    -0.117631762269E+04    0.25033E+01   -0.17828E+01  1536   0.566E+00    0.122E+01
RMM:  11    -0.117723362232E+04   -0.91600E+00   -0.31398E+00  1612   0.273E+00    0.743E+00
RMM:  12    -0.117720789090E+04    0.25731E-01   -0.46992E-01  1828   0.108E+00    0.518E+00
RMM:  13    -0.117669827955E+04    0.50961E+00   -0.13533E+00  1540   0.147E+00    0.268E+00
RMM:  14    -0.117671990068E+04   -0.21621E-01   -0.25323E-01  1583   0.752E-01    0.873E-01
RMM:  15    -0.117670566287E+04    0.14238E-01   -0.26016E-02  1538   0.260E-01    0.430E-01
RMM:  16    -0.117670663140E+04   -0.96854E-03   -0.10816E-02  1627   0.150E-01    0.283E-01
RMM:  17    -0.117670684048E+04   -0.20908E-03   -0.51058E-03  1656   0.101E-01    0.180E-01
RMM:  18    -0.117670667356E+04    0.16692E-03   -0.33288E-03  1544   0.743E-02    0.108E-01
RMM:  19    -0.117670673020E+04   -0.56645E-04   -0.45596E-04  1674   0.320E-02    0.719E-02
RMM:  20    -0.117670676872E+04   -0.38517E-04   -0.11210E-04  1685   0.164E-02    0.537E-02
RMM:  21    -0.117670679775E+04   -0.29031E-04   -0.16432E-04  1544   0.176E-02    0.317E-02
RMM:  22    -0.117670679553E+04    0.22149E-05   -0.69318E-05  1583   0.108E-02    0.194E-02
RMM:  23    -0.117670680026E+04   -0.47271E-05   -0.11494E-05  1548   0.529E-03    0.109E-02
RMM:  24    -0.117670679841E+04    0.18466E-05   -0.90878E-06  1525   0.393E-03    0.939E-03
RMM:  25    -0.117670679556E+04    0.28590E-05   -0.32424E-06  1090   0.233E-03    0.547E-03
RMM:  26    -0.117670679595E+04   -0.39295E-06   -0.10947E-06  1022   0.149E-03
   1 F= -.11837964E+04 E0= -.11837964E+04  d E =-.118380E+04  mag=     3.0000
       N       E                     dE             d eps       ncg     rms          rms(c)
DAV:   1    -0.117670253703E+04    0.42585E-02   -0.33074E-01  1856   0.139E+00    0.237E-01
RMM:   2    -0.117670487088E+04   -0.23338E-02   -0.23748E-02  1668   0.211E-01    0.169E-01
RMM:   3    -0.117670546557E+04   -0.59470E-03   -0.63125E-03  1777   0.879E-02    0.109E-01
RMM:   4    -0.117670546594E+04   -0.36834E-06   -0.72791E-04  1920   0.345E-02    0.908E-02
RMM:   5    -0.117670540307E+04    0.62876E-04   -0.24815E-04  1638   0.199E-02    0.571E-02
RMM:   6    -0.117670539566E+04    0.74029E-05   -0.20226E-04  1574   0.186E-02    0.275E-02
RMM:   7    -0.117670539572E+04   -0.58943E-07   -0.25175E-05  1600   0.847E-03    0.151E-02
RMM:   8    -0.117670539508E+04    0.64302E-06   -0.10934E-05  1537   0.461E-03    0.913E-03
RMM:   9    -0.117670539391E+04    0.11724E-05   -0.58125E-06  1475   0.322E-03    0.538E-03
RMM:  10    -0.117670539424E+04   -0.32782E-06   -0.26448E-06  1091   0.223E-03
   2 F= -.11837954E+04 E0= -.11837954E+04  d E =0.963910E-03  mag=     3.0000
       N       E                     dE             d eps       ncg     rms          rms(c)
DAV:   1    -0.117670605815E+04   -0.66424E-03   -0.13460E-01  1888   0.881E-01    0.151E-01
RMM:   2    -0.117670692961E+04   -0.87146E-03   -0.89874E-03  1657   0.131E-01    0.109E-01
RMM:   3    -0.117670714757E+04   -0.21796E-03   -0.23669E-03  1710   0.535E-02    0.691E-02
RMM:   4    -0.117670714846E+04   -0.88959E-06   -0.29266E-04  1866   0.220E-02    0.578E-02
RMM:   5    -0.117670712315E+04    0.25305E-04   -0.94851E-05  1647   0.125E-02    0.375E-02
RMM:   6    -0.117670711756E+04    0.55887E-05   -0.89595E-05  1563   0.125E-02    0.166E-02
RMM:   7    -0.117670711743E+04    0.13169E-06   -0.10866E-05  1583   0.555E-03    0.967E-03
RMM:   8    -0.117670711663E+04    0.80415E-06   -0.44438E-06  1430   0.294E-03
   3 F= -.11837969E+04 E0= -.11837969E+04  d E =-.479980E-03  mag=     3.0000
