       N       E                     dE             d eps       ncg     rms          rms(c)
DAV:   1     0.469194051857E+04    0.46919E+04   -0.17909E+05  1888   0.943E+02
DAV:   2    -0.648131011508E+02   -0.47568E+04   -0.43410E+04  2432   0.214E+02
DAV:   3    -0.118225102786E+04   -0.11174E+04   -0.11123E+04  2016   0.112E+02
DAV:   4    -0.122849056826E+04   -0.46240E+02   -0.45972E+02  1984   0.304E+01
DAV:   5    -0.122960927403E+04   -0.11187E+01   -0.11156E+01  2304   0.441E+00    0.701E+01
RMM:   6    -0.120889589927E+04    0.20713E+02   -0.41477E+01  1580   0.858E+00    0.794E+01
RMM:   7    -0.120269884157E+04    0.61971E+01   -0.81104E+00  1555   0.383E+00    0.601E+01
RMM:   8    -0.118928384731E+04    0.13415E+02   -0.92745E+00  1540   0.435E+00    0.446E+01
RMM:   9    -0.116660895586E+04    0.22675E+02   -0.38599E+01  1706   0.807E+00    0.359E+01
RMM:  10    -0.116321162531E+04    0.33973E+01   -0.42858E+00  1595   0.338E+00    0.299E+01
RMM:  11    -0.116071286819E+04    0.24988E+01   -0.99658E+00  1616   0.456E+00    0.160E+01
RMM:  12    -0.115984549627E+04    0.86737E+00   -0.12021E+01  1622   0.456E+00    0.143E+01
RMM:  13    -0.116004742175E+04   -0.20193E+00   -0.84210E-01  1558   0.169E+00    0.854E+00
RMM:  14    -0.116020140146E+04   -0.15398E+00   -0.31322E-01  1618   0.950E-01    0.505E+00
RMM:  15    -0.116011860505E+04    0.82796E-01   -0.43382E-01  1564   0.891E-01    0.449E+00
RMM:  16    -0.116007557018E+04    0.43035E-01   -0.21549E-01  1537   0.628E-01    0.493E+00
RMM:  17    -0.116000307452E+04    0.72496E-01   -0.23556E-01  1586   0.672E-01    0.137E+00
RMM:  18    -0.116000524985E+04   -0.21753E-02   -0.31991E-02  1565   0.271E-01    0.132E+00
RMM:  19    -0.116000905832E+04   -0.38085E-02   -0.95698E-03  1540   0.157E-01    0.912E-01
RMM:  20    -0.116001002995E+04   -0.97163E-03   -0.49287E-03  1636   0.943E-02    0.692E-01
RMM:  21    -0.116001230467E+04   -0.22747E-02   -0.66354E-03  1572   0.123E-01    0.362E-01
RMM:  22    -0.116001172164E+04    0.58303E-03   -0.33042E-03  1591   0.811E-02    0.206E-01
RMM:  23    -0.116001173366E+04   -0.12019E-04   -0.32992E-04  1600   0.259E-02    0.164E-01
RMM:  24    -0.116001168538E+04    0.48278E-04   -0.29817E-04  1586   0.256E-02    0.806E-02
RMM:  25    -0.116001172099E+04   -0.35607E-04   -0.72783E-05  1641   0.141E-02    0.764E-02
RMM:  26    -0.116001172386E+04   -0.28674E-05   -0.40960E-05  1625   0.989E-03    0.476E-02
RMM:  27    -0.116001172255E+04    0.13094E-05   -0.17667E-05  1390   0.523E-03    0.306E-02
RMM:  28    -0.116001172078E+04    0.17691E-05   -0.10928E-05  1311   0.431E-03    0.144E-02
RMM:  29    -0.116001172260E+04   -0.18257E-05   -0.27659E-06  1114   0.242E-03    0.105E-02
RMM:  30    -0.116001172395E+04   -0.13437E-05   -0.24760E-06  1112   0.211E-03    0.876E-03
RMM:  31    -0.116001172504E+04   -0.10958E-05   -0.77236E-07  1034   0.143E-03    0.688E-03
RMM:  32    -0.116001172633E+04   -0.12887E-05   -0.74493E-07   995   0.126E-03    0.543E-03
RMM:  33    -0.116001172779E+04   -0.14553E-05   -0.24656E-06  1071   0.221E-03    0.374E-03
RMM:  34    -0.116001172905E+04   -0.12647E-05   -0.39490E-06  1093   0.264E-03    0.416E-03
RMM:  35    -0.116001173132E+04   -0.22719E-05   -0.40723E-06  1102   0.275E-03    0.542E-03
RMM:  36    -0.116001173318E+04   -0.18578E-05   -0.47265E-06  1058   0.288E-03    0.604E-03
RMM:  37    -0.116001173427E+04   -0.10908E-05   -0.57366E-06  1109   0.319E-03    0.570E-03
RMM:  38    -0.116001172568E+04    0.85892E-05   -0.12736E-05  1200   0.470E-03    0.643E-03
RMM:  39    -0.116001173438E+04   -0.86924E-05   -0.65145E-06  1086   0.348E-03    0.460E-03
RMM:  40    -0.116001174179E+04   -0.74089E-05   -0.33478E-06  1030   0.257E-03    0.381E-03
RMM:  41    -0.116001174722E+04   -0.54300E-05   -0.92339E-07   946   0.154E-03    0.248E-03
RMM:  42    -0.116001174848E+04   -0.12633E-05   -0.41664E-07   831   0.978E-04    0.187E-03
RMM:  43    -0.116001174806E+04    0.42034E-06   -0.81160E-07   806   0.121E-03
   1 F= -.11600117E+04 E0= -.11600117E+04  d E =-.116001E+04  mag=    -0.0000
       N       E                     dE             d eps       ncg     rms          rms(c)
DAV:   1    -0.115994115595E+04    0.70593E-01   -0.11965E+01  1760   0.540E+00    0.802E-01
RMM:   2    -0.115997255968E+04   -0.31404E-01   -0.35122E-01  1558   0.101E+00    0.106E+00
RMM:   3    -0.115998206047E+04   -0.95008E-02   -0.83046E-02  1777   0.404E-01    0.990E-01
RMM:   4    -0.115998277225E+04   -0.71178E-03   -0.14011E-02  1900   0.157E-01    0.103E+00
RMM:   5    -0.115998360823E+04   -0.83598E-03   -0.14855E-03  1936   0.484E-02    0.104E+00
RMM:   6    -0.115998077726E+04    0.28310E-02   -0.92284E-04  1555   0.366E-02    0.105E+00
RMM:   7    -0.115997635545E+04    0.44218E-02   -0.57255E-03  1580   0.818E-02    0.115E+00
RMM:   8    -0.115997764891E+04   -0.12935E-02   -0.65582E-04  1546   0.445E-02    0.106E+00
RMM:   9    -0.116002156767E+04   -0.43919E-01   -0.97944E-02  2416   0.345E-01    0.161E+00
RMM:  10    -0.116017318877E+04   -0.15162E+00   -0.23159E-01  2527   0.537E-01    0.467E+00
RMM:  11    -0.116005445159E+04    0.11874E+00   -0.95009E-02  2397   0.340E-01    0.344E+00
RMM:  12    -0.116000445095E+04    0.50001E-01   -0.54445E-02  2324   0.249E-01    0.242E+00
RMM:  13    -0.115998479907E+04    0.19652E-01   -0.18226E-02  2034   0.158E-01    0.154E+00
RMM:  14    -0.115997649101E+04    0.83081E-02   -0.88020E-03  1897   0.110E-01    0.102E+00
RMM:  15    -0.115997347380E+04    0.30172E-02   -0.31051E-03  1793   0.679E-02    0.731E-01
RMM:  16    -0.115997043394E+04    0.30399E-02   -0.12634E-02  2048   0.123E-01    0.184E-01
RMM:  17    -0.115997053330E+04   -0.99361E-04   -0.38031E-04  1695   0.340E-02    0.140E-01
RMM:  18    -0.115997093344E+04   -0.40013E-03   -0.75043E-04  1597   0.326E-02    0.250E-01
RMM:  19    -0.115997080432E+04    0.12911E-03   -0.69198E-05  1542   0.153E-02    0.194E-01
RMM:  20    -0.115997050522E+04    0.29910E-03   -0.13071E-03  1951   0.390E-02    0.129E-02
RMM:  21    -0.115997051568E+04   -0.10458E-04   -0.61800E-05  1834   0.113E-02    0.125E-02
RMM:  22    -0.115997051617E+04   -0.49475E-06   -0.58784E-06  1301   0.370E-03
   2 F= -.11599705E+04 E0= -.11599705E+04  d E =0.412319E-01  mag=     0.0000
       N       E                     dE             d eps       ncg     rms          rms(c)
DAV:   1    -0.116001108401E+04   -0.40568E-01   -0.58080E+00  1728   0.376E+00    0.545E-01
RMM:   2    -0.116002343272E+04   -0.12349E-01   -0.14513E-01  1556   0.692E-01    0.722E-01
RMM:   3    -0.116002698999E+04   -0.35573E-02   -0.30747E-02  1726   0.267E-01    0.676E-01
RMM:   4    -0.116002732446E+04   -0.33447E-03   -0.58479E-03  1886   0.107E-01    0.716E-01
RMM:   5    -0.116002757880E+04   -0.25434E-03   -0.72123E-04  1872   0.349E-02    0.705E-01
RMM:   6    -0.116003792035E+04   -0.10342E-01   -0.17426E-02  1785   0.161E-01    0.112E+00
RMM:   7    -0.116003958231E+04   -0.16620E-02   -0.16330E-03  1757   0.601E-02    0.124E+00
RMM:   8    -0.116003969828E+04   -0.11597E-03   -0.50251E-04  1681   0.316E-02    0.120E+00
RMM:   9    -0.116003783441E+04    0.18639E-02   -0.91024E-04  1585   0.436E-02    0.134E+00
RMM:  10    -0.116002970067E+04    0.81337E-02   -0.11251E-02  2298   0.120E-01    0.142E+00
RMM:  11    -0.116002883601E+04    0.86467E-03   -0.43596E-04  1811   0.269E-02    0.136E+00
RMM:  12    -0.116002900385E+04   -0.16784E-03   -0.45475E-05  1728   0.976E-03    0.137E+00
RMM:  13    -0.116002623792E+04    0.27659E-02   -0.14154E-03  2079   0.408E-02    0.115E+00
RMM:  14    -0.116002623972E+04   -0.18008E-05   -0.45690E-05  1797   0.958E-03    0.115E+00
RMM:  15    -0.116002664925E+04   -0.40953E-03   -0.23751E-05  1469   0.646E-03    0.118E+00
RMM:  16    -0.116002624090E+04    0.40834E-03   -0.33891E-04  2210   0.220E-02    0.118E+00
RMM:  17    -0.116002498629E+04    0.12546E-02   -0.38543E-04  2092   0.217E-02    0.105E+00
RMM:  18    -0.116002453813E+04    0.44816E-03   -0.77703E-04  2326   0.308E-02    0.852E-01
RMM:  19    -0.116002443297E+04    0.10516E-03   -0.25241E-04  2051   0.183E-02    0.742E-01
RMM:  20    -0.116002340530E+04    0.10277E-02   -0.54512E-04  2174   0.262E-02    0.569E-01
RMM:  21    -0.116002311114E+04    0.29416E-03   -0.37088E-04  2146   0.213E-02    0.438E-01
RMM:  22    -0.116002345140E+04   -0.34026E-03   -0.18388E-04  2036   0.162E-02    0.412E-01
RMM:  23    -0.116002287449E+04    0.57691E-03   -0.50712E-04  2144   0.261E-02    0.294E-01
RMM:  24    -0.116002259783E+04    0.27666E-03   -0.27116E-04  2033   0.189E-02    0.265E-01
RMM:  25    -0.116002246948E+04    0.12835E-03   -0.54787E-05  1749   0.873E-03    0.258E-01
RMM:  26    -0.116002233853E+04    0.13095E-03   -0.39477E-05  1725   0.741E-03    0.244E-01
RMM:  27    -0.116002207084E+04    0.26769E-03   -0.17577E-04  2139   0.144E-02    0.207E-01
RMM:  28    -0.116002204257E+04    0.28272E-04   -0.13823E-05  1597   0.482E-03    0.195E-01
RMM:  29    -0.116002191122E+04    0.13135E-03   -0.70289E-05  2036   0.906E-03    0.169E-01
RMM:  30    -0.116002182598E+04    0.85236E-04   -0.48459E-05  1883   0.775E-03    0.145E-01
RMM:  31    -0.116002173865E+04    0.87331E-04   -0.69713E-05  2057   0.916E-03    0.117E-01
RMM:  32    -0.116002168268E+04    0.55970E-04   -0.55484E-05  1928   0.839E-03    0.874E-02
RMM:  33    -0.116002167044E+04    0.12248E-04   -0.13344E-05  1607   0.462E-03    0.775E-02
RMM:  34    -0.116002166673E+04    0.37093E-05   -0.34559E-06  1188   0.300E-03    0.738E-02
RMM:  35    -0.116002169757E+04   -0.30849E-04   -0.34906E-05  1839   0.750E-03    0.872E-02
RMM:  36    -0.116002167040E+04    0.27177E-04   -0.19202E-05  1594   0.539E-03    0.718E-02
RMM:  37    -0.116002166049E+04    0.99042E-05   -0.77505E-06  1426   0.379E-03    0.636E-02
RMM:  38    -0.116002166133E+04   -0.83385E-06   -0.12427E-05  1413   0.518E-03    0.700E-02
RMM:  39    -0.116002166073E+04    0.59605E-06   -0.97775E-06  1316   0.474E-03
   3 F= -.11600217E+04 E0= -.11600217E+04  d E =-.991267E-02  mag=     0.0000
       N       E                     dE             d eps       ncg     rms          rms(c)
DAV:   1    -0.116002077757E+04    0.88376E-03   -0.14145E+00  1664   0.212E+00    0.282E-01
RMM:   2    -0.116002359416E+04   -0.28166E-02   -0.31769E-02  1544   0.334E-01    0.329E-01
RMM:   3    -0.116002421202E+04   -0.61786E-03   -0.68154E-03  1672   0.126E-01    0.285E-01
RMM:   4    -0.116002416345E+04    0.48566E-04   -0.12581E-03  1778   0.542E-02    0.280E-01
RMM:   5    -0.116002394952E+04    0.21394E-03   -0.36843E-04  1591   0.257E-02    0.244E-01
RMM:   6    -0.116002410422E+04   -0.15471E-03   -0.35845E-03  1959   0.670E-02    0.189E-01
RMM:   7    -0.116002381510E+04    0.28912E-03   -0.32535E-04  1558   0.255E-02    0.146E-01
RMM:   8    -0.116002377506E+04    0.40039E-04   -0.20238E-04  1631   0.170E-02    0.114E-01
RMM:   9    -0.116002376612E+04    0.89405E-05   -0.56636E-05  1746   0.986E-03    0.926E-02
RMM:  10    -0.116002375264E+04    0.13478E-04   -0.56433E-05  1602   0.958E-03    0.617E-02
RMM:  11    -0.116002375292E+04   -0.27330E-06   -0.30452E-05  1687   0.730E-03    0.417E-02
RMM:  12    -0.116002376163E+04   -0.87132E-05   -0.51335E-06  1258   0.360E-03    0.371E-02
RMM:  13    -0.116002376749E+04   -0.58564E-05   -0.10391E-05  1423   0.454E-03    0.231E-02
RMM:  14    -0.116002377588E+04   -0.83899E-05   -0.84452E-06  1384   0.378E-03    0.178E-02
RMM:  15    -0.116002377718E+04   -0.13052E-05   -0.99230E-07  1021   0.184E-03    0.174E-02
RMM:  16    -0.116002377228E+04    0.48986E-05   -0.61638E-07  1010   0.143E-03    0.176E-02
RMM:  17    -0.116002378771E+04   -0.15426E-04   -0.45091E-06  1111   0.338E-03    0.145E-02
RMM:  18    -0.116002373758E+04    0.50130E-04   -0.10857E-05  1175   0.504E-03    0.190E-02
RMM:  19    -0.116002331466E+04    0.42292E-03   -0.32899E-04  1713   0.250E-02    0.332E-02
RMM:  20    -0.116002366362E+04   -0.34896E-03   -0.11215E-05  1113   0.428E-03    0.314E-02
RMM:  21    -0.116002363470E+04    0.28924E-04   -0.83984E-05  1581   0.138E-02    0.213E-02
RMM:  22    -0.116002353937E+04    0.95325E-04   -0.12278E-04  1558   0.164E-02    0.182E-02
RMM:  23    -0.116002363712E+04   -0.97743E-04   -0.11301E-05  1151   0.436E-03    0.178E-02
RMM:  24    -0.116002367660E+04   -0.39486E-04   -0.73858E-07   975   0.148E-03    0.176E-02
RMM:  25    -0.116002368081E+04   -0.42051E-05   -0.14013E-07   844   0.849E-04    0.174E-02
RMM:  26    -0.116002368071E+04    0.98218E-07   -0.21246E-08   596   0.350E-04
   4 F= -.11600237E+04 E0= -.11600237E+04  d E =-.201998E-02  mag=     0.0000
       N       E                     dE             d eps       ncg     rms          rms(c)
DAV:   1    -0.116002426207E+04   -0.58126E-03   -0.19134E-01  1664   0.781E-01    0.104E-01
RMM:   2    -0.116002463932E+04   -0.37725E-03   -0.43341E-03  1546   0.123E-01    0.120E-01
RMM:   3    -0.116002472786E+04   -0.88541E-04   -0.96438E-04  1672   0.464E-02    0.105E-01
RMM:   4    -0.116002472338E+04    0.44776E-05   -0.14491E-04  1791   0.193E-02    0.104E-01
RMM:   5    -0.116002469624E+04    0.27142E-04   -0.48232E-05  1570   0.938E-03    0.904E-02
RMM:   6    -0.116002473219E+04   -0.35948E-04   -0.51069E-04  2020   0.252E-02    0.789E-02
RMM:   7    -0.116002467864E+04    0.53550E-04   -0.65401E-05  1566   0.102E-02    0.591E-02
RMM:   8    -0.116002468271E+04   -0.40748E-05   -0.17397E-05  1601   0.601E-03    0.519E-02
RMM:   9    -0.116002467488E+04    0.78359E-05   -0.16723E-05  1497   0.481E-03    0.398E-02
RMM:  10    -0.116002467272E+04    0.21549E-05   -0.15227E-05  1536   0.471E-03    0.260E-02
RMM:  11    -0.116002467431E+04   -0.15882E-05   -0.16436E-06  1045   0.236E-03    0.227E-02
RMM:  12    -0.116002467540E+04   -0.10879E-05   -0.16155E-06  1042   0.189E-03    0.170E-02
RMM:  13    -0.116002467588E+04   -0.48579E-06   -0.23090E-06  1072   0.193E-03
   5 F= -.11600247E+04 E0= -.11600247E+04  d E =-.301515E-02  mag=    -0.0000
       N       E                     dE             d eps       ncg     rms          rms(c)
DAV:   1    -0.116002442227E+04    0.25313E-03   -0.67137E-01  1664   0.166E+00    0.202E-01
RMM:   2    -0.116002611998E+04   -0.16977E-02   -0.20098E-02  1558   0.247E-01    0.193E-01
RMM:   3    -0.116002627886E+04   -0.15888E-03   -0.34126E-03  1668   0.949E-02    0.174E-01
RMM:   4    -0.116002612620E+04    0.15266E-03   -0.53948E-04  1705   0.385E-02    0.157E-01
RMM:   5    -0.116002585731E+04    0.26889E-03   -0.81761E-04  1552   0.359E-02    0.888E-02
RMM:   6    -0.116002589736E+04   -0.40050E-04   -0.76141E-04  1550   0.348E-02    0.540E-02
RMM:   7    -0.116002584747E+04    0.49886E-04   -0.76951E-05  1573   0.157E-02    0.428E-02
RMM:   8    -0.116002583494E+04    0.12530E-04   -0.11006E-04  1562   0.117E-02    0.258E-02
RMM:   9    -0.116002584037E+04   -0.54267E-05   -0.16719E-05  1543   0.699E-03    0.199E-02
RMM:  10    -0.116002583982E+04    0.55113E-06   -0.38006E-05  1583   0.788E-03    0.108E-02
RMM:  11    -0.116002584352E+04   -0.37027E-05   -0.11335E-05  1574   0.462E-03    0.105E-02
RMM:  12    -0.116002584344E+04    0.81753E-07   -0.14206E-06  1032   0.220E-03
   6 F= -.11600258E+04 E0= -.11600258E+04  d E =-.116756E-02  mag=    -0.0000
       N       E                     dE             d eps       ncg     rms          rms(c)
DAV:   1    -0.116002611747E+04   -0.27395E-03   -0.77812E-02  1664   0.565E-01    0.700E-02
RMM:   2    -0.116002631827E+04   -0.20080E-03   -0.23534E-03  1558   0.844E-02    0.668E-02
RMM:   3    -0.116002633803E+04   -0.19757E-04   -0.39785E-04  1666   0.325E-02    0.600E-02
RMM:   4    -0.116002632127E+04    0.16757E-04   -0.63778E-05  1707   0.131E-02    0.540E-02
RMM:   5    -0.116002629556E+04    0.25713E-04   -0.10075E-04  1566   0.128E-02    0.312E-02
RMM:   6    -0.116002630727E+04   -0.11714E-04   -0.92261E-05  1561   0.123E-02    0.207E-02
RMM:   7    -0.116002630490E+04    0.23735E-05   -0.10189E-05  1542   0.548E-03    0.167E-02
RMM:   8    -0.116002631079E+04   -0.58925E-05   -0.13795E-05  1503   0.472E-03    0.125E-02
RMM:   9    -0.116002631579E+04   -0.50039E-05   -0.25593E-06  1093   0.269E-03    0.114E-02
RMM:  10    -0.116002632379E+04   -0.79952E-05   -0.63105E-06  1257   0.363E-03    0.101E-02
RMM:  11    -0.116002633062E+04   -0.68262E-05   -0.18214E-06  1040   0.227E-03    0.102E-02
RMM:  12    -0.116002630464E+04    0.25976E-04   -0.42650E-06  1087   0.338E-03    0.104E-02
RMM:  13    -0.116002633147E+04   -0.26829E-04   -0.48268E-06  1082   0.358E-03    0.103E-02
RMM:  14    -0.116002629295E+04    0.38523E-04   -0.74698E-06  1111   0.435E-03    0.104E-02
RMM:  15    -0.116002618352E+04    0.10942E-03   -0.48066E-05  1365   0.943E-03    0.106E-02
RMM:  16    -0.116002609084E+04    0.92680E-04   -0.84262E-05  1563   0.124E-02    0.965E-03
RMM:  17    -0.116002586355E+04    0.22729E-03   -0.28273E-04  1612   0.224E-02    0.143E-02
RMM:  18    -0.116002617847E+04   -0.31492E-03   -0.14066E-05  1150   0.484E-03    0.114E-02
RMM:  19    -0.116002614216E+04    0.36314E-04   -0.51809E-05  1320   0.942E-03    0.133E-02
RMM:  20    -0.116002617358E+04   -0.31415E-04   -0.37295E-05  1259   0.789E-03    0.125E-02
RMM:  21    -0.116002612632E+04    0.47254E-04   -0.83390E-05  1409   0.133E-02    0.673E-03
RMM:  22    -0.116002612639E+04   -0.69624E-07   -0.51185E-05  1269   0.906E-03    0.552E-03
RMM:  23    -0.116002622786E+04   -0.10147E-03   -0.42649E-06  1024   0.316E-03    0.189E-03
RMM:  24    -0.116002622727E+04    0.59619E-06   -0.59184E-07   827   0.123E-03
   7 F= -.11600262E+04 E0= -.11600262E+04  d E =-.155139E-02  mag=    -0.0000
       N       E                     dE             d eps       ncg     rms          rms(c)
DAV:   1    -0.116002585063E+04    0.37724E-03   -0.44581E-01  1664   0.140E+00    0.144E-01
RMM:   2    -0.116002709267E+04   -0.12420E-02   -0.14343E-02  1562   0.194E-01    0.133E-01
RMM:   3    -0.116002718416E+04   -0.91496E-04   -0.22058E-03  1658   0.744E-02    0.125E-01
RMM:   4    -0.116002711522E+04    0.68943E-04   -0.30675E-04  1702   0.289E-02    0.114E-01
RMM:   5    -0.116002702358E+04    0.91640E-04   -0.86987E-04  1576   0.360E-02    0.426E-02
RMM:   6    -0.116002702797E+04   -0.43882E-05   -0.16169E-04  1625   0.189E-02    0.335E-02
RMM:   7    -0.116002700948E+04    0.18483E-04   -0.28885E-05  1617   0.831E-03    0.257E-02
RMM:   8    -0.116002700722E+04    0.22687E-05   -0.30083E-05  1554   0.630E-03    0.141E-02
RMM:   9    -0.116002700703E+04    0.18616E-06   -0.12492E-05  1595   0.462E-03    0.782E-03
RMM:  10    -0.116002700633E+04    0.69450E-06   -0.44246E-06  1371   0.310E-03
   8 F= -.11600270E+04 E0= -.11600270E+04  d E =-.779066E-03  mag=    -0.0000
       N       E                     dE             d eps       ncg     rms          rms(c)
DAV:   1    -0.116002705458E+04   -0.47549E-04   -0.36358E-02  1664   0.399E-01    0.414E-02
RMM:   2    -0.116002715627E+04   -0.10169E-03   -0.11839E-03  1562   0.558E-02    0.382E-02
RMM:   3    -0.116002716359E+04   -0.73239E-05   -0.18214E-04  1665   0.215E-02    0.362E-02
RMM:   4    -0.116002715745E+04    0.61451E-05   -0.25132E-05  1670   0.834E-03    0.329E-02
RMM:   5    -0.116002714743E+04    0.10021E-04   -0.77245E-05  1616   0.106E-02    0.124E-02
RMM:   6    -0.116002714791E+04   -0.47887E-06   -0.13475E-05  1580   0.543E-03    0.966E-03
RMM:   7    -0.116002714626E+04    0.16413E-05   -0.26558E-06  1099   0.252E-03    0.718E-03
RMM:   8    -0.116002714640E+04   -0.13410E-06   -0.21460E-06  1084   0.194E-03
   9 F= -.11600271E+04 E0= -.11600271E+04  d E =-.919130E-03  mag=    -0.0000
