       N       E                     dE             d eps       ncg     rms          rms(c)
DAV:   1     0.460713260195E+04    0.46071E+04   -0.17469E+05  1800   0.989E+02
DAV:   2    -0.310318278128E+02   -0.46382E+04   -0.42537E+04  2268   0.221E+02
DAV:   3    -0.117370436103E+04   -0.11427E+04   -0.11361E+04  1836   0.118E+02
DAV:   4    -0.123332225574E+04   -0.59618E+02   -0.59135E+02  1944   0.389E+01
DAV:   5    -0.123544217592E+04   -0.21199E+01   -0.21081E+01  1944   0.647E+00    0.647E+01
RMM:   6    -0.121917356318E+04    0.16269E+02   -0.90841E+00  1687   0.420E+00    0.532E+01
RMM:   7    -0.118237882111E+04    0.36795E+02   -0.12232E+02  1776   0.142E+01    0.325E+01
RMM:   8    -0.117395891738E+04    0.84199E+01   -0.63850E+00  1834   0.770E+00    0.264E+01
RMM:   9    -0.116953924452E+04    0.44197E+01   -0.13210E+01  1612   0.444E+00    0.200E+01
RMM:  10    -0.116915250746E+04    0.38674E+00   -0.20378E+01  1768   0.723E+00    0.127E+01
RMM:  11    -0.116740875626E+04    0.17438E+01   -0.24080E+00  1769   0.411E+00    0.688E+00
RMM:  12    -0.116681431989E+04    0.59444E+00   -0.17986E+00  1790   0.158E+00    0.531E+00
RMM:  13    -0.116635884693E+04    0.45547E+00   -0.10701E+00  1641   0.146E+00    0.228E+00
RMM:  14    -0.116639738647E+04   -0.38540E-01   -0.24613E-01  1579   0.139E+00    0.151E+00
RMM:  15    -0.116636996682E+04    0.27420E-01   -0.52670E-02  1791   0.448E-01    0.124E+00
RMM:  16    -0.116634565821E+04    0.24309E-01   -0.42241E-02  1651   0.355E-01    0.107E+00
RMM:  17    -0.116634101647E+04    0.46417E-02   -0.73800E-03  1704   0.161E-01    0.758E-01
RMM:  18    -0.116633866570E+04    0.23508E-02   -0.27890E-03  1515   0.962E-02    0.530E-01
RMM:  19    -0.116633786550E+04    0.80020E-03   -0.11362E-03  1338   0.908E-02    0.396E-01
RMM:  20    -0.116633729510E+04    0.57040E-03   -0.19462E-03  1430   0.700E-02    0.190E-01
RMM:  21    -0.116633700634E+04    0.28876E-03   -0.11559E-03  1428   0.802E-02    0.106E-01
RMM:  22    -0.116633697458E+04    0.31757E-04   -0.44456E-04  1183   0.560E-02
   1 F= -.11734066E+04 E0= -.11734066E+04  d E =-.117341E+04  mag=    -0.0073
       N       E                     dE             d eps       ncg     rms          rms(c)
DAV:   1    -0.116633930462E+04   -0.22983E-02   -0.20923E-01  1548   0.796E-01    0.213E-01
RMM:   2    -0.116633918881E+04    0.11581E-03   -0.59102E-03  1721   0.125E-01    0.187E-01
RMM:   3    -0.116633850704E+04    0.68177E-03   -0.74692E-04  1383   0.845E-02    0.149E-01
RMM:   4    -0.116633784450E+04    0.66254E-03   -0.16118E-03  1504   0.602E-02    0.914E-02
RMM:   5    -0.116633779299E+04    0.51512E-04   -0.59748E-04  1302   0.602E-02
   2 F= -.11734076E+04 E0= -.11734076E+04  d E =-.997086E-03  mag=     0.0007
       N       E                     dE             d eps       ncg     rms          rms(c)
DAV:   1    -0.116633776447E+04    0.80033E-04   -0.11177E-03  1692   0.746E-02    0.354E-02
RMM:   2    -0.116633776161E+04    0.28596E-05   -0.39012E-05   868   0.102E-02
   3 F= -.11734076E+04 E0= -.11734076E+04  d E =-.980600E-03  mag=     0.0002
