       N       E                     dE             d eps       ncg     rms          rms(c)
DAV:   1     0.517740256127E+04    0.51774E+04   -0.17330E+05  1732   0.992E+02
DAV:   2     0.907267819777E+02   -0.50867E+04   -0.46443E+04  2328   0.227E+02
DAV:   3    -0.117798173610E+04   -0.12687E+04   -0.12583E+04  1919   0.122E+02
DAV:   4    -0.123803991713E+04   -0.60058E+02   -0.59439E+02  1888   0.346E+01
DAV:   5    -0.123951979744E+04   -0.14799E+01   -0.14720E+01  2032   0.497E+00    0.650E+01
RMM:   6    -0.122288307468E+04    0.16637E+02   -0.20294E+01  1476   0.491E+00    0.515E+01
RMM:   7    -0.120352521840E+04    0.19358E+02   -0.16973E+01  1476   0.542E+00    0.385E+01
RMM:   8    -0.117652633304E+04    0.26999E+02   -0.43822E+01  1512   0.873E+00    0.240E+01
RMM:   9    -0.117403136360E+04    0.24950E+01   -0.40636E+01  1488   0.860E+00    0.955E+00
RMM:  10    -0.117421722617E+04   -0.18586E+00   -0.31240E+00  1501   0.313E+00    0.829E+00
RMM:  11    -0.117360040721E+04    0.61682E+00   -0.14132E+00  1476   0.162E+00    0.335E+00
RMM:  12    -0.117341108560E+04    0.18932E+00   -0.37097E-01  1476   0.903E-01    0.168E+00
RMM:  13    -0.117338058310E+04    0.30503E-01   -0.21315E-01  1476   0.636E-01    0.771E-01
RMM:  14    -0.117337628920E+04    0.42939E-02   -0.39941E-02  1518   0.311E-01    0.397E-01
RMM:  15    -0.117337589613E+04    0.39307E-03   -0.26959E-02  1483   0.214E-01    0.274E-01
RMM:  16    -0.117337670836E+04   -0.81223E-03   -0.46083E-03  1213   0.106E-01
   1 F= -.11808102E+04 E0= -.11808102E+04  d E =-.118081E+04  mag=     1.0111
       N       E                     dE             d eps       ncg     rms          rms(c)
DAV:   1    -0.117337748936E+04   -0.15932E-02   -0.20011E-02  1540   0.251E-01    0.165E-01
RMM:   2    -0.117337749558E+04   -0.62244E-05   -0.10713E-03   921   0.583E-02
   2 F= -.11808110E+04 E0= -.11808110E+04  d E =-.728556E-03  mag=     0.9979
       N       E                     dE             d eps       ncg     rms          rms(c)
DAV:   1    -0.117337754708E+04   -0.57727E-04   -0.85806E-03  1648   0.164E-01    0.862E-02
RMM:   2    -0.117337757877E+04   -0.31683E-04   -0.38826E-04   888   0.350E-02
   3 F= -.11808110E+04 E0= -.11808110E+04  d E =-.772622E-03  mag=     1.0005
       N       E                     dE             d eps       ncg     rms          rms(c)
DAV:   1    -0.117337761590E+04   -0.68821E-04   -0.18156E-03  1272   0.772E-02    0.525E-02
RMM:   2    -0.117337762363E+04   -0.77295E-05   -0.10344E-04   782   0.195E-02
   4 F= -.11808110E+04 E0= -.11808110E+04  d E =-.798354E-03  mag=     0.9996
       N       E                     dE             d eps       ncg     rms          rms(c)
DAV:   1    -0.117337784680E+04   -0.23089E-03   -0.19374E-02  1608   0.213E-01    0.451E-02
RMM:   2    -0.117337785270E+04   -0.59039E-05   -0.38241E-04   874   0.306E-02
   5 F= -.11808114E+04 E0= -.11808114E+04  d E =-.324124E-03  mag=     0.9999
       N       E                     dE             d eps       ncg     rms          rms(c)
DAV:   1    -0.117337789508E+04   -0.48286E-04   -0.46485E-02  1624   0.330E-01    0.867E-02
RMM:   2    -0.117337788985E+04    0.52296E-05   -0.90217E-04   899   0.465E-02
   6 F= -.11808115E+04 E0= -.11808115E+04  d E =-.508486E-03  mag=     1.0000
       N       E                     dE             d eps       ncg     rms          rms(c)
DAV:   1    -0.117337822859E+04   -0.33350E-03   -0.15385E-02  1552   0.195E-01    0.815E-02
RMM:   2    -0.117337819224E+04    0.36350E-04   -0.33034E-04   848   0.298E-02
   7 F= -.11808119E+04 E0= -.11808119E+04  d E =-.351033E-03  mag=     1.0000
       N       E                     dE             d eps       ncg     rms          rms(c)
DAV:   1    -0.117337884905E+04   -0.62047E-03   -0.13784E-01  1512   0.580E-01    0.131E-01
RMM:   2    -0.117337880074E+04    0.48316E-04   -0.21880E-03   944   0.751E-02
   8 F= -.11808126E+04 E0= -.11808126E+04  d E =-.110402E-02  mag=     1.0000
       N       E                     dE             d eps       ncg     rms          rms(c)
DAV:   1    -0.117337887169E+04   -0.22640E-04   -0.55893E-01  1512   0.116E+00    0.285E-01
RMM:   2    -0.117337864156E+04    0.23014E-03   -0.91255E-03  1314   0.153E-01
   9 F= -.11808128E+04 E0= -.11808128E+04  d E =-.122708E-02  mag=     1.0000
       N       E                     dE             d eps       ncg     rms          rms(c)
DAV:   1    -0.117337807169E+04    0.80000E-03   -0.36166E-03  1432   0.960E-02    0.191E-01
RMM:   2    -0.117337788512E+04    0.18657E-03   -0.30892E-04   789   0.288E-02
  10 F= -.11808120E+04 E0= -.11808120E+04  d E =0.743582E-03  mag=     1.0000
       N       E                     dE             d eps       ncg     rms          rms(c)
DAV:   1    -0.117337753375E+04    0.53794E-03   -0.13064E-02  1464   0.179E-01    0.710E-02
RMM:   2    -0.117337751703E+04    0.16718E-04   -0.19420E-04   786   0.221E-02
  11 F= -.11808117E+04 E0= -.11808117E+04  d E =0.107477E-02  mag=     1.0000
       N       E                     dE             d eps       ncg     rms          rms(c)
DAV:   1    -0.117337771898E+04   -0.18523E-03   -0.66297E-04  1096   0.431E-02    0.404E-02
RMM:   2    -0.117337772160E+04   -0.26224E-05   -0.30203E-05   401   0.122E-02
  12 F= -.11808119E+04 E0= -.11808119E+04  d E =-.207231E-03  mag=     1.0000
       N       E                     dE             d eps       ncg     rms          rms(c)
DAV:   1    -0.117337825382E+04   -0.53485E-03   -0.54141E-03  1376   0.122E-01    0.288E-02
RMM:   2    -0.117337825540E+04   -0.15735E-05   -0.12648E-04   743   0.200E-02
  13 F= -.11808124E+04 E0= -.11808124E+04  d E =-.749096E-03  mag=     1.0000
       N       E                     dE             d eps       ncg     rms          rms(c)
DAV:   1    -0.117337905127E+04   -0.79744E-03   -0.21854E-02  1496   0.242E-01    0.566E-02
RMM:   2    -0.117337905572E+04   -0.44526E-05   -0.47653E-04   832   0.366E-02
  14 F= -.11808133E+04 E0= -.11808133E+04  d E =-.156596E-02  mag=     1.0000
       N       E                     dE             d eps       ncg     rms          rms(c)
DAV:   1    -0.117337975824E+04   -0.70698E-03   -0.87215E-02  1528   0.483E-01    0.119E-01
RMM:   2    -0.117337977064E+04   -0.12393E-04   -0.17402E-03   903   0.698E-02
  15 F= -.11808140E+04 E0= -.11808140E+04  d E =-.231560E-02  mag=     1.0000
