       N       E                     dE             d eps       ncg     rms          rms(c)
DAV:   1     0.467148320336E+04    0.46715E+04   -0.17661E+05  1908   0.911E+02
DAV:   2    -0.109926032149E+03   -0.47814E+04   -0.43565E+04  2520   0.209E+02
DAV:   3    -0.119228385814E+04   -0.10824E+04   -0.10777E+04  2088   0.108E+02
DAV:   4    -0.123638898233E+04   -0.44105E+02   -0.43876E+02  2052   0.290E+01
DAV:   5    -0.123758043840E+04   -0.11915E+01   -0.11881E+01  2376   0.449E+00    0.752E+01
RMM:   6    -0.121935604845E+04    0.18224E+02   -0.78309E+01  1631   0.116E+01    0.721E+01
RMM:   7    -0.120788672748E+04    0.11469E+02   -0.55022E+00  1601   0.339E+00    0.525E+01
RMM:   8    -0.119501341122E+04    0.12873E+02   -0.82520E+00  1584   0.390E+00    0.397E+01
RMM:   9    -0.117221857308E+04    0.22795E+02   -0.36719E+01  1584   0.734E+00    0.268E+01
RMM:  10    -0.116537747977E+04    0.68411E+01   -0.13049E+01  1587   0.458E+00    0.208E+01
RMM:  11    -0.116629241447E+04   -0.91493E+00   -0.14228E+00  1617   0.186E+00    0.168E+01
RMM:  12    -0.116644749182E+04   -0.15508E+00   -0.93320E+00  1584   0.349E+00    0.823E+00
RMM:  13    -0.116605826199E+04    0.38923E+00   -0.75592E-01  1602   0.133E+00    0.558E+00
RMM:  14    -0.116573628154E+04    0.32198E+00   -0.10142E+00  1586   0.117E+00    0.327E+00
RMM:  15    -0.116576829180E+04   -0.32010E-01   -0.69043E-02  1586   0.448E-01    0.176E+00
RMM:  16    -0.116574070581E+04    0.27586E-01   -0.90113E-02  1584   0.352E-01    0.963E-01
RMM:  17    -0.116573712457E+04    0.35812E-02   -0.16803E-02  1592   0.178E-01    0.513E-01
RMM:  18    -0.116573688985E+04    0.23472E-03   -0.24763E-03  1653   0.773E-02    0.374E-01
RMM:  19    -0.116573752239E+04   -0.63253E-03   -0.46823E-04  1262   0.328E-02    0.350E-01
RMM:  20    -0.116573706361E+04    0.45878E-03   -0.11965E-03  1241   0.508E-02    0.152E-01
RMM:  21    -0.116573706724E+04   -0.36269E-05   -0.38112E-04  1197   0.248E-02
   1 F= -.11727732E+04 E0= -.11727732E+04  d E =-.117277E+04  mag=    -0.0055
       N       E                     dE             d eps       ncg     rms          rms(c)
DAV:   1    -0.116573166736E+04    0.53962E-02   -0.82274E-01  1728   0.248E+00    0.282E-01
RMM:   2    -0.116574185018E+04   -0.10183E-01   -0.10849E-01  1675   0.401E-01    0.200E-01
RMM:   3    -0.116573932870E+04    0.25215E-02   -0.33958E-03  1757   0.934E-02    0.186E-01
RMM:   4    -0.116573898344E+04    0.34526E-03   -0.90235E-04  1455   0.336E-02    0.137E-01
RMM:   5    -0.116573887040E+04    0.11304E-03   -0.12743E-03  1582   0.437E-02    0.519E-02
RMM:   6    -0.116573889357E+04   -0.23169E-04   -0.97441E-05  1047   0.192E-02
   2 F= -.11727751E+04 E0= -.11727751E+04  d E =-.192464E-02  mag=    -0.0004
       N       E                     dE             d eps       ncg     rms          rms(c)
DAV:   1    -0.116573889043E+04   -0.20032E-04   -0.95263E-02  1656   0.844E-01    0.985E-02
RMM:   2    -0.116574000557E+04   -0.11151E-02   -0.11919E-02  1631   0.132E-01    0.671E-02
RMM:   3    -0.116573970360E+04    0.30198E-03   -0.42081E-04  1138   0.295E-02    0.621E-02
RMM:   4    -0.116573965182E+04    0.51775E-04   -0.10058E-04  1017   0.147E-02
   3 F= -.11727759E+04 E0= -.11727759E+04  d E =-.264669E-02  mag=     0.0001
       N       E                     dE             d eps       ncg     rms          rms(c)
DAV:   1    -0.116574016686E+04   -0.46326E-03   -0.16395E-01  1800   0.110E+00    0.117E-01
RMM:   2    -0.116574217497E+04   -0.20081E-02   -0.21356E-02  1638   0.170E-01    0.776E-02
RMM:   3    -0.116574164959E+04    0.52538E-03   -0.54179E-04  1185   0.350E-02    0.715E-02
RMM:   4    -0.116574161451E+04    0.35083E-04   -0.17227E-04  1040   0.172E-02
   4 F= -.11727778E+04 E0= -.11727778E+04  d E =-.197585E-02  mag=    -0.0000
       N       E                     dE             d eps       ncg     rms          rms(c)
DAV:   1    -0.116573956328E+04    0.20863E-02   -0.28470E-01  1800   0.147E+00    0.164E-01
RMM:   2    -0.116574299719E+04   -0.34339E-02   -0.37238E-02  1654   0.223E-01    0.119E-01
RMM:   3    -0.116574210041E+04    0.89678E-03   -0.96465E-04  1296   0.467E-02    0.111E-01
RMM:   4    -0.116574207247E+04    0.27939E-04   -0.27829E-04  1072   0.214E-02
   5 F= -.11727783E+04 E0= -.11727783E+04  d E =-.245839E-02  mag=     0.0000
       N       E                     dE             d eps       ncg     rms          rms(c)
DAV:   1    -0.116574305476E+04   -0.95436E-03   -0.15774E-01  1872   0.993E-01    0.121E-01
RMM:   2    -0.116574450337E+04   -0.14486E-02   -0.16059E-02  1638   0.150E-01    0.947E-02
RMM:   3    -0.116574410458E+04    0.39879E-03   -0.46229E-04  1136   0.329E-02    0.875E-02
RMM:   4    -0.116574408874E+04    0.15845E-04   -0.21360E-04  1076   0.194E-02
   6 F= -.11727803E+04 E0= -.11727803E+04  d E =-.202905E-02  mag=    -0.0000
       N       E                     dE             d eps       ncg     rms          rms(c)
DAV:   1    -0.116573882517E+04    0.52794E-02   -0.11262E+00  1872   0.263E+00    0.313E-01
RMM:   2    -0.116574931585E+04   -0.10491E-01   -0.11314E-01  1638   0.401E-01    0.240E-01
RMM:   3    -0.116574660874E+04    0.27071E-02   -0.35058E-03  1616   0.876E-02    0.221E-01
RMM:   4    -0.116574609866E+04    0.51008E-03   -0.18710E-03  1588   0.485E-02    0.119E-01
RMM:   5    -0.116574619963E+04   -0.10097E-03   -0.94191E-04  1586   0.379E-02    0.545E-02
RMM:   6    -0.116574619400E+04    0.56257E-05   -0.10603E-04  1052   0.166E-02
   7 F= -.11727825E+04 E0= -.11727825E+04  d E =-.420064E-02  mag=    -0.0000
       N       E                     dE             d eps       ncg     rms          rms(c)
DAV:   1    -0.116574762591E+04   -0.14263E-02   -0.50952E-02  1728   0.530E-01    0.649E-02
RMM:   2    -0.116574799989E+04   -0.37397E-03   -0.44083E-03  1530   0.828E-02    0.525E-02
RMM:   3    -0.116574789212E+04    0.10777E-03   -0.12042E-04  1042   0.184E-02    0.489E-02
RMM:   4    -0.116574792211E+04   -0.29989E-04   -0.68786E-05  1032   0.117E-02
   8 F= -.11727843E+04 E0= -.11727843E+04  d E =-.173428E-02  mag=     0.0000
       N       E                     dE             d eps       ncg     rms          rms(c)
DAV:   1    -0.116574986231E+04   -0.19702E-02   -0.44844E-01  1584   0.158E+00    0.182E-01
RMM:   2    -0.116575346999E+04   -0.36077E-02   -0.39296E-02  1634   0.243E-01    0.143E-01
RMM:   3    -0.116575254332E+04    0.92667E-03   -0.10992E-03  1378   0.508E-02    0.133E-01
RMM:   4    -0.116575252910E+04    0.14225E-04   -0.54706E-04  1378   0.281E-02
   9 F= -.11727889E+04 E0= -.11727889E+04  d E =-.637581E-02  mag=    -0.0000
       N       E                     dE             d eps       ncg     rms          rms(c)
DAV:   1    -0.116574832179E+04    0.42215E-02   -0.17842E+00  1584   0.316E+00    0.364E-01
RMM:   2    -0.116576295595E+04   -0.14634E-01   -0.15617E-01  1640   0.482E-01    0.284E-01
RMM:   3    -0.116575935465E+04    0.36013E-02   -0.44706E-03  1722   0.101E-01    0.263E-01
RMM:   4    -0.116575920874E+04    0.14591E-03   -0.21833E-03  1560   0.531E-02    0.130E-01
RMM:   5    -0.116575946905E+04   -0.26031E-03   -0.69986E-04  1470   0.348E-02    0.574E-02
RMM:   6    -0.116575947433E+04   -0.52784E-05   -0.11000E-04  1070   0.169E-02
  10 F= -.11727960E+04 E0= -.11727960E+04  d E =-.134634E-01  mag=    -0.0000
       N       E                     dE             d eps       ncg     rms          rms(c)
DAV:   1    -0.116571843700E+04    0.41032E-01   -0.72137E+00  1584   0.633E+00    0.718E-01
RMM:   2    -0.116577783441E+04   -0.59397E-01   -0.62908E-01  1632   0.968E-01    0.545E-01
RMM:   3    -0.116576327001E+04    0.14564E-01   -0.19160E-02  1810   0.207E-01    0.502E-01
RMM:   4    -0.116576165021E+04    0.16198E-02   -0.90608E-03  1592   0.105E-01    0.268E-01
RMM:   5    -0.116576225909E+04   -0.60888E-03   -0.33443E-03  1590   0.718E-02    0.126E-01
RMM:   6    -0.116576223553E+04    0.23557E-04   -0.48007E-04  1328   0.335E-02
  11 F= -.11727993E+04 E0= -.11727993E+04  d E =-.168109E-01  mag=    -0.0000
       N       E                     dE             d eps       ncg     rms          rms(c)
DAV:   1    -0.116576282940E+04   -0.57031E-03   -0.32721E+00  1800   0.439E+00    0.546E-01
RMM:   2    -0.116578984434E+04   -0.27015E-01   -0.29274E-01  1598   0.697E-01    0.451E-01
RMM:   3    -0.116578228136E+04    0.75630E-02   -0.93288E-03  1756   0.160E-01    0.409E-01
RMM:   4    -0.116577856384E+04    0.37175E-02   -0.10350E-02  1604   0.117E-01    0.198E-01
RMM:   5    -0.116577831802E+04    0.24582E-03   -0.24107E-03  1598   0.609E-02    0.131E-01
RMM:   6    -0.116577809589E+04    0.22212E-03   -0.89408E-04  1546   0.372E-02    0.547E-02
RMM:   7    -0.116577812941E+04   -0.33517E-04   -0.11662E-04  1030   0.224E-02
  12 F= -.11728148E+04 E0= -.11728148E+04  d E =-.154638E-01  mag=    -0.0000
       N       E                     dE             d eps       ncg     rms          rms(c)
DAV:   1    -0.116578151440E+04   -0.34185E-02   -0.37242E-01  1872   0.148E+00    0.181E-01
RMM:   2    -0.116578452118E+04   -0.30068E-02   -0.32816E-02  1604   0.236E-01    0.148E-01
RMM:   3    -0.116578367697E+04    0.84421E-03   -0.10098E-03  1382   0.545E-02    0.135E-01
RMM:   4    -0.116578321837E+04    0.45860E-03   -0.12458E-03  1570   0.423E-02    0.608E-02
RMM:   5    -0.116578319026E+04    0.28106E-04   -0.24932E-04  1094   0.239E-02
  13 F= -.11728200E+04 E0= -.11728200E+04  d E =-.206571E-01  mag=    -0.0000
       N       E                     dE             d eps       ncg     rms          rms(c)
DAV:   1    -0.116579224602E+04   -0.90277E-02   -0.72111E-01  1728   0.216E+00    0.282E-01
RMM:   2    -0.116579912973E+04   -0.68837E-02   -0.76470E-02  1632   0.333E-01    0.213E-01
RMM:   3    -0.116579708368E+04    0.20460E-02   -0.25186E-03  1534   0.734E-02    0.190E-01
RMM:   4    -0.116579624335E+04    0.84033E-03   -0.23591E-03  1588   0.547E-02    0.887E-02
RMM:   5    -0.116579621803E+04    0.25328E-04   -0.61281E-04  1564   0.321E-02
  14 F= -.11728328E+04 E0= -.11728328E+04  d E =-.128327E-01  mag=    -0.0000
       N       E                     dE             d eps       ncg     rms          rms(c)
DAV:   1    -0.116579597613E+04    0.26723E-03   -0.86191E-01  1728   0.237E+00    0.319E-01
RMM:   2    -0.116580429871E+04   -0.83226E-02   -0.92021E-02  1636   0.373E-01    0.247E-01
RMM:   3    -0.116580201485E+04    0.22839E-02   -0.30843E-03  1576   0.829E-02    0.222E-01
RMM:   4    -0.116580112209E+04    0.89277E-03   -0.26073E-03  1590   0.577E-02    0.109E-01
RMM:   5    -0.116580111509E+04    0.69939E-05   -0.78857E-04  1582   0.351E-02
  15 F= -.11728375E+04 E0= -.11728375E+04  d E =-.175519E-01  mag=     0.0000
       N       E                     dE             d eps       ncg     rms          rms(c)
DAV:   1    -0.116580625335E+04   -0.51313E-02   -0.48441E-01  1728   0.190E+00    0.256E-01
RMM:   2    -0.116581231177E+04   -0.60584E-02   -0.65977E-02  1648   0.305E-01    0.170E-01
RMM:   3    -0.116581056633E+04    0.17454E-02   -0.16814E-03  1404   0.624E-02    0.152E-01
RMM:   4    -0.116581037697E+04    0.18936E-03   -0.90724E-04  1534   0.347E-02    0.835E-02
RMM:   5    -0.116581043342E+04   -0.56450E-04   -0.38314E-04  1292   0.264E-02
  16 F= -.11728469E+04 E0= -.11728469E+04  d E =-.935172E-02  mag=     0.0000
       N       E                     dE             d eps       ncg     rms          rms(c)
DAV:   1    -0.116580199991E+04    0.83771E-02   -0.18524E+00  1728   0.372E+00    0.479E-01
RMM:   2    -0.116582532140E+04   -0.23321E-01   -0.25167E-01  1652   0.590E-01    0.325E-01
RMM:   3    -0.116581868685E+04    0.66345E-02   -0.64908E-03  1752   0.121E-01    0.292E-01
RMM:   4    -0.116581773809E+04    0.94877E-03   -0.32190E-03  1590   0.624E-02    0.162E-01
RMM:   5    -0.116581779234E+04   -0.54256E-04   -0.16504E-03  1584   0.503E-02    0.727E-02
RMM:   6    -0.116581778290E+04    0.94389E-05   -0.15484E-04  1076   0.212E-02
  17 F= -.11728544E+04 E0= -.11728544E+04  d E =-.168202E-01  mag=    -0.0000
       N       E                     dE             d eps       ncg     rms          rms(c)
DAV:   1    -0.116582095586E+04   -0.31635E-02   -0.24202E-01  1872   0.161E+00    0.211E-01
RMM:   2    -0.116582656778E+04   -0.56119E-02   -0.59714E-02  1612   0.250E-01    0.112E-01
RMM:   3    -0.116582511508E+04    0.14527E-02   -0.14358E-03  1238   0.462E-02    0.101E-01
RMM:   4    -0.116582515948E+04   -0.44393E-04   -0.30093E-04  1050   0.169E-02
  18 F= -.11728618E+04 E0= -.11728618E+04  d E =-.742714E-02  mag=    -0.0000
       N       E                     dE             d eps       ncg     rms          rms(c)
DAV:   1    -0.116580651400E+04    0.18601E-01   -0.21667E+00  1728   0.482E+00    0.628E-01
RMM:   2    -0.116585817594E+04   -0.51662E-01   -0.53984E-01  1614   0.749E-01    0.324E-01
RMM:   3    -0.116584496169E+04    0.13214E-01   -0.12994E-02  1702   0.142E-01    0.289E-01
RMM:   4    -0.116584505067E+04   -0.88982E-04   -0.26789E-03  1352   0.418E-02    0.215E-01
RMM:   5    -0.116584545978E+04   -0.40911E-03   -0.11428E-03  1544   0.430E-02    0.733E-02
RMM:   6    -0.116584558115E+04   -0.12137E-03   -0.12152E-04  1074   0.201E-02    0.458E-02
RMM:   7    -0.116584558418E+04   -0.30283E-05   -0.57699E-05  1030   0.118E-02
  19 F= -.11728824E+04 E0= -.11728824E+04  d E =-.280719E-01  mag=    -0.0000
       N       E                     dE             d eps       ncg     rms          rms(c)
DAV:   1    -0.116572039935E+04    0.12518E+00   -0.87736E+00  1728   0.961E+00    0.127E+00
RMM:   2    -0.116593118937E+04   -0.21079E+00   -0.21878E+00  1640   0.150E+00    0.622E-01
RMM:   3    -0.116587673621E+04    0.54453E-01   -0.54229E-02  1812   0.293E-01    0.548E-01
RMM:   4    -0.116587657805E+04    0.15817E-03   -0.11481E-02  1628   0.863E-02    0.415E-01
RMM:   5    -0.116587723232E+04   -0.65427E-03   -0.44400E-03  1584   0.824E-02    0.150E-01
RMM:   6    -0.116587764750E+04   -0.41519E-03   -0.62440E-04  1320   0.404E-02    0.875E-02
RMM:   7    -0.116587758019E+04    0.67318E-04   -0.13767E-04  1066   0.179E-02
  20 F= -.11729152E+04 E0= -.11729152E+04  d E =-.608119E-01  mag=    -0.0000
       N       E                     dE             d eps       ncg     rms          rms(c)
DAV:   1    -0.116528159040E+04    0.59606E+00   -0.35903E+01  1728   0.189E+01    0.268E+00
RMM:   2    -0.116615423485E+04   -0.87264E+00   -0.89955E+00  1704   0.306E+00    0.128E+00
RMM:   3    -0.116592091802E+04    0.23332E+00   -0.25651E-01  1774   0.649E-01    0.112E+00
RMM:   4    -0.116591847328E+04    0.24447E-02   -0.36113E-02  1664   0.181E-01    0.940E-01
RMM:   5    -0.116591606995E+04    0.24033E-02   -0.15926E-02  1584   0.158E-01    0.446E-01
RMM:   6    -0.116591813232E+04   -0.20624E-02   -0.64219E-03  1596   0.108E-01    0.189E-01
RMM:   7    -0.116591797582E+04    0.15650E-03   -0.78563E-04  1306   0.476E-02    0.149E-01
RMM:   8    -0.116591807137E+04   -0.95547E-04   -0.20598E-03  1534   0.511E-02    0.761E-02
RMM:   9    -0.116591805905E+04    0.12324E-04   -0.10684E-04  1054   0.233E-02
  21 F= -.11729581E+04 E0= -.11729581E+04  d E =-.103725E+00  mag=     0.0000
       N       E                     dE             d eps       ncg     rms          rms(c)
DAV:   1    -0.116328375727E+04    0.26343E+01   -0.15162E+02  1728   0.363E+01    0.594E+00
RMM:   2    -0.116624154704E+04   -0.29578E+01   -0.30255E+01  1798   0.645E+00    0.268E+00
RMM:   3    -0.116589988740E+04    0.34166E+00   -0.10314E+00  1708   0.136E+00    0.244E+00
RMM:   4    -0.116588767828E+04    0.12209E-01   -0.12945E-01  1656   0.362E-01    0.216E+00
RMM:   5    -0.116586218441E+04    0.25494E-01   -0.27725E-02  1612   0.222E-01    0.161E+00
RMM:   6    -0.116585579846E+04    0.63860E-02   -0.11391E-01  1584   0.394E-01    0.444E-01
RMM:   7    -0.116585475898E+04    0.10395E-02   -0.61858E-03  1674   0.162E-01    0.353E-01
RMM:   8    -0.116585279678E+04    0.19622E-02   -0.62586E-03  1588   0.806E-02    0.189E-01
RMM:   9    -0.116585327342E+04   -0.47664E-03   -0.13170E-03  1534   0.508E-02    0.110E-01
RMM:  10    -0.116585316039E+04    0.11303E-03   -0.62406E-04  1432   0.303E-02    0.584E-02
RMM:  11    -0.116585318939E+04   -0.29002E-04   -0.18264E-04  1090   0.248E-02
  22 F= -.11728969E+04 E0= -.11728969E+04  d E =-.425724E-01  mag=    -0.0000
       N       E                     dE             d eps       ncg     rms          rms(c)
DAV:   1    -0.116419893301E+04    0.16542E+01   -0.10489E+02  1800   0.308E+01    0.521E+00
RMM:   2    -0.116653588094E+04   -0.23369E+01   -0.24169E+01  1780   0.528E+00    0.230E+00
RMM:   3    -0.116595500534E+04    0.58088E+00   -0.74782E-01  1712   0.117E+00    0.201E+00
RMM:   4    -0.116593952577E+04    0.15480E-01   -0.10051E-01  1622   0.332E-01    0.163E+00
RMM:   5    -0.116592533710E+04    0.14189E-01   -0.20309E-02  1600   0.200E-01    0.112E+00
RMM:   6    -0.116592598590E+04   -0.64879E-03   -0.52160E-02  1584   0.284E-01    0.389E-01
RMM:   7    -0.116592552452E+04    0.46138E-03   -0.42244E-03  1626   0.111E-01    0.237E-01
RMM:   8    -0.116592472255E+04    0.80197E-03   -0.39971E-03  1572   0.668E-02    0.127E-01
RMM:   9    -0.116592479566E+04   -0.73108E-04   -0.35806E-04  1210   0.302E-02
  23 F= -.11729657E+04 E0= -.11729657E+04  d E =-.111326E+00  mag=     0.0000
       N       E                     dE             d eps       ncg     rms          rms(c)
DAV:   1    -0.116599705755E+04   -0.72335E-01   -0.68857E+00  1800   0.765E+00    0.908E-01
RMM:   2    -0.116611109302E+04   -0.11404E+00   -0.11722E+00  1596   0.120E+00    0.573E-01
RMM:   3    -0.116608230226E+04    0.28791E-01   -0.30504E-02  1836   0.252E-01    0.519E-01
RMM:   4    -0.116607947684E+04    0.28254E-02   -0.10365E-02  1642   0.110E-01    0.339E-01
RMM:   5    -0.116607866375E+04    0.81308E-03   -0.56615E-03  1586   0.922E-02    0.165E-01
RMM:   6    -0.116607864810E+04    0.15647E-04   -0.73468E-04  1574   0.476E-02
  24 F= -.11731197E+04 E0= -.11731197E+04  d E =-.153996E+00  mag=    -0.0000
       N       E                     dE             d eps       ncg     rms          rms(c)
DAV:   1    -0.116607427839E+04    0.43854E-02   -0.26947E+00  1872   0.476E+00    0.565E-01
RMM:   2    -0.116611851479E+04   -0.44236E-01   -0.45541E-01  1592   0.756E-01    0.371E-01
RMM:   3    -0.116610760274E+04    0.10912E-01   -0.11812E-02  1816   0.160E-01    0.341E-01
RMM:   4    -0.116610665626E+04    0.94647E-03   -0.39655E-03  1608   0.667E-02    0.230E-01
RMM:   5    -0.116610647281E+04    0.18345E-03   -0.23212E-03  1584   0.587E-02    0.114E-01
RMM:   6    -0.116610648570E+04   -0.12882E-04   -0.33725E-04  1216   0.328E-02
  25 F= -.11731477E+04 E0= -.11731477E+04  d E =-.181969E+00  mag=    -0.0000
       N       E                     dE             d eps       ncg     rms          rms(c)
DAV:   1    -0.116616255428E+04   -0.56081E-01   -0.57466E+00  1728   0.670E+00    0.827E-01
RMM:   2    -0.116624926486E+04   -0.86711E-01   -0.89814E-01  1606   0.106E+00    0.526E-01
RMM:   3    -0.116622703729E+04    0.22228E-01   -0.23290E-02  1814   0.214E-01    0.486E-01
RMM:   4    -0.116622493629E+04    0.21010E-02   -0.57264E-03  1604   0.840E-02    0.333E-01
RMM:   5    -0.116622452805E+04    0.40824E-03   -0.59192E-03  1584   0.916E-02    0.144E-01
RMM:   6    -0.116622457993E+04   -0.51881E-04   -0.70909E-04  1588   0.445E-02
  26 F= -.11732659E+04 E0= -.11732659E+04  d E =-.118202E+00  mag=    -0.0000
       N       E                     dE             d eps       ncg     rms          rms(c)
DAV:   1    -0.116619365213E+04    0.30876E-01   -0.89162E+00  1872   0.836E+00    0.105E+00
RMM:   2    -0.116632774626E+04   -0.13409E+00   -0.13860E+00  1610   0.133E+00    0.672E-01
RMM:   3    -0.116629396525E+04    0.33781E-01   -0.36419E-02  1788   0.273E-01    0.621E-01
RMM:   4    -0.116629088254E+04    0.30827E-02   -0.88803E-03  1602   0.104E-01    0.427E-01
RMM:   5    -0.116629034379E+04    0.53875E-03   -0.91135E-03  1584   0.113E-01    0.186E-01
RMM:   6    -0.116629038622E+04   -0.42428E-04   -0.11518E-03  1588   0.565E-02    0.106E-01
RMM:   7    -0.116629031410E+04    0.72114E-04   -0.99287E-04  1472   0.332E-02
  27 F= -.11733317E+04 E0= -.11733317E+04  d E =-.184062E+00  mag=    -0.0000
       N       E                     dE             d eps       ncg     rms          rms(c)
DAV:   1    -0.116630790192E+04   -0.17516E-01   -0.57763E+00  1872   0.740E+00    0.911E-01
RMM:   2    -0.116641885137E+04   -0.11095E+00   -0.11410E+00  1600   0.116E+00    0.537E-01
RMM:   3    -0.116639238963E+04    0.26462E-01   -0.33750E-02  1790   0.243E-01    0.491E-01
RMM:   4    -0.116639078308E+04    0.16065E-02   -0.40789E-03  1610   0.724E-02    0.368E-01
RMM:   5    -0.116639020566E+04    0.57743E-03   -0.71305E-03  1584   0.986E-02    0.130E-01
RMM:   6    -0.116639020233E+04    0.33297E-05   -0.50216E-04  1318   0.431E-02
  28 F= -.11734319E+04 E0= -.11734319E+04  d E =-.100191E+00  mag=    -0.0000
       N       E                     dE             d eps       ncg     rms          rms(c)
DAV:   1    -0.116633748176E+04    0.52724E-01   -0.70917E+00  1872   0.812E+00    0.102E+00
RMM:   2    -0.116647314112E+04   -0.13566E+00   -0.13931E+00  1600   0.129E+00    0.620E-01
RMM:   3    -0.116644055000E+04    0.32591E-01   -0.36289E-02  1814   0.258E-01    0.573E-01
RMM:   4    -0.116643827580E+04    0.22742E-02   -0.61401E-03  1610   0.889E-02    0.398E-01
RMM:   5    -0.116643797304E+04    0.30276E-03   -0.76484E-03  1584   0.104E-01    0.153E-01
RMM:   6    -0.116643788634E+04    0.86703E-04   -0.71367E-04  1480   0.491E-02
  29 F= -.11734800E+04 E0= -.11734800E+04  d E =-.148269E+00  mag=     0.0000
       N       E                     dE             d eps       ncg     rms          rms(c)
DAV:   1    -0.116638124344E+04    0.56730E-01   -0.75615E+00  1872   0.877E+00    0.108E+00
RMM:   2    -0.116655227956E+04   -0.17104E+00   -0.17441E+00  1602   0.141E+00    0.669E-01
RMM:   3    -0.116651188112E+04    0.40398E-01   -0.44836E-02  1788   0.272E-01    0.622E-01
RMM:   4    -0.116650957151E+04    0.23096E-02   -0.66415E-03  1622   0.916E-02    0.467E-01
RMM:   5    -0.116650881856E+04    0.75296E-03   -0.98189E-03  1602   0.117E-01    0.175E-01
RMM:   6    -0.116650882179E+04   -0.32303E-05   -0.71418E-04  1420   0.557E-02
  30 F= -.11735513E+04 E0= -.11735513E+04  d E =-.713306E-01  mag=     0.0000
       N       E                     dE             d eps       ncg     rms          rms(c)
DAV:   1    -0.116650361885E+04    0.51997E-02   -0.51399E-01  2016   0.230E+00    0.284E-01
RMM:   2    -0.116651489012E+04   -0.11271E-01   -0.11537E-01  1606   0.366E-01    0.184E-01
RMM:   3    -0.116651243810E+04    0.24520E-02   -0.31932E-03  1420   0.735E-02    0.172E-01
RMM:   4    -0.116651238861E+04    0.49489E-04   -0.34526E-04  1106   0.239E-02
  31 F= -.11735550E+04 E0= -.11735550E+04  d E =-.750288E-01  mag=     0.0000
       N       E                     dE             d eps       ncg     rms          rms(c)
DAV:   1    -0.116653098306E+04   -0.18545E-01   -0.21710E+00  1656   0.394E+00    0.471E-01
RMM:   2    -0.116656164598E+04   -0.30663E-01   -0.31704E-01  1616   0.644E-01    0.361E-01
RMM:   3    -0.116655435480E+04    0.72912E-02   -0.89059E-03  1834   0.138E-01    0.348E-01
RMM:   4    -0.116655372477E+04    0.63002E-03   -0.20909E-03  1538   0.434E-02    0.285E-01
RMM:   5    -0.116655322945E+04    0.49533E-03   -0.32614E-03  1584   0.666E-02    0.110E-01
RMM:   6    -0.116655329199E+04   -0.62544E-04   -0.40044E-04  1226   0.368E-02
  32 F= -.11735959E+04 E0= -.11735959E+04  d E =-.409317E-01  mag=     0.0000
       N       E                     dE             d eps       ncg     rms          rms(c)
DAV:   1    -0.116652455915E+04    0.28670E-01   -0.50442E+00  1656   0.600E+00    0.710E-01
RMM:   2    -0.116659655467E+04   -0.71996E-01   -0.74072E-01  1616   0.982E-01    0.533E-01
RMM:   3    -0.116657943651E+04    0.17118E-01   -0.21025E-02  1846   0.213E-01    0.512E-01
RMM:   4    -0.116657817641E+04    0.12601E-02   -0.45989E-03  1608   0.640E-02    0.425E-01
RMM:   5    -0.116657702530E+04    0.11511E-02   -0.70139E-03  1584   0.978E-02    0.163E-01
RMM:   6    -0.116657716848E+04   -0.14318E-03   -0.10196E-03  1550   0.557E-02    0.959E-02
RMM:   7    -0.116657702560E+04    0.14288E-03   -0.24924E-04  1156   0.195E-02    0.601E-02
RMM:   8    -0.116657700780E+04    0.17806E-04   -0.36530E-04  1314   0.230E-02
  33 F= -.11736197E+04 E0= -.11736197E+04  d E =-.646907E-01  mag=     0.0000
       N       E                     dE             d eps       ncg     rms          rms(c)
DAV:   1    -0.116655945005E+04    0.17576E-01   -0.38743E+00  1800   0.557E+00    0.649E-01
RMM:   2    -0.116662129040E+04   -0.61840E-01   -0.63623E-01  1616   0.872E-01    0.419E-01
RMM:   3    -0.116660693170E+04    0.14359E-01   -0.17748E-02  1846   0.190E-01    0.388E-01
RMM:   4    -0.116660573666E+04    0.11950E-02   -0.49205E-03  1610   0.694E-02    0.281E-01
RMM:   5    -0.116660523085E+04    0.50581E-03   -0.34128E-03  1584   0.701E-02    0.125E-01
RMM:   6    -0.116660525810E+04   -0.27258E-04   -0.43209E-04  1306   0.372E-02
  34 F= -.11736483E+04 E0= -.11736483E+04  d E =-.285958E-01  mag=    -0.0000
       N       E                     dE             d eps       ncg     rms          rms(c)
DAV:   1    -0.116660348327E+04    0.17476E-02   -0.22908E-01  1800   0.136E+00    0.161E-01
RMM:   2    -0.116660714456E+04   -0.36613E-02   -0.37723E-02  1610   0.216E-01    0.112E-01
RMM:   3    -0.116660630049E+04    0.84406E-03   -0.97248E-04  1204   0.476E-02    0.105E-01
RMM:   4    -0.116660628607E+04    0.14420E-04   -0.24644E-04  1052   0.206E-02
  35 F= -.11736494E+04 E0= -.11736494E+04  d E =-.296875E-01  mag=    -0.0000
       N       E                     dE             d eps       ncg     rms          rms(c)
DAV:   1    -0.116660144197E+04    0.48585E-02   -0.17301E+00  1728   0.380E+00    0.434E-01
RMM:   2    -0.116662927558E+04   -0.27834E-01   -0.28614E-01  1598   0.570E-01    0.274E-01
RMM:   3    -0.116662256700E+04    0.67086E-02   -0.69090E-03  1816   0.118E-01    0.252E-01
RMM:   4    -0.116662220422E+04    0.36278E-03   -0.23711E-03  1594   0.498E-02    0.168E-01
RMM:   5    -0.116662222024E+04   -0.16015E-04   -0.12739E-03  1576   0.444E-02    0.734E-02
RMM:   6    -0.116662221030E+04    0.99397E-05   -0.14190E-04  1060   0.239E-02
  36 F= -.11736655E+04 E0= -.11736655E+04  d E =-.160766E-01  mag=    -0.0000
       N       E                     dE             d eps       ncg     rms          rms(c)
DAV:   1    -0.116661944002E+04    0.27802E-02   -0.39087E-01  1872   0.180E+00    0.205E-01
RMM:   2    -0.116662567598E+04   -0.62360E-02   -0.64437E-02  1600   0.273E-01    0.128E-01
RMM:   3    -0.116662417052E+04    0.15055E-02   -0.15016E-03  1318   0.559E-02    0.117E-01
RMM:   4    -0.116662413106E+04    0.39461E-04   -0.51242E-04  1150   0.263E-02
  37 F= -.11736674E+04 E0= -.11736674E+04  d E =-.180479E-01  mag=     0.0000
       N       E                     dE             d eps       ncg     rms          rms(c)
DAV:   1    -0.116662041942E+04    0.37511E-02   -0.15015E+00  1728   0.337E+00    0.388E-01
RMM:   2    -0.116664013178E+04   -0.19712E-01   -0.20325E-01  1610   0.500E-01    0.260E-01
RMM:   3    -0.116663543766E+04    0.46941E-02   -0.52662E-03  1804   0.105E-01    0.239E-01
RMM:   4    -0.116663504620E+04    0.39146E-03   -0.18548E-03  1580   0.488E-02    0.145E-01
RMM:   5    -0.116663510838E+04   -0.62182E-04   -0.10649E-03  1568   0.410E-02    0.638E-02
RMM:   6    -0.116663507291E+04    0.35473E-04   -0.12385E-04  1024   0.214E-02
  38 F= -.11736785E+04 E0= -.11736785E+04  d E =-.111093E-01  mag=     0.0000
       N       E                     dE             d eps       ncg     rms          rms(c)
DAV:   1    -0.116663472306E+04    0.38532E-03   -0.78621E-02  1872   0.768E-01    0.901E-02
RMM:   2    -0.116663572576E+04   -0.10027E-02   -0.10535E-02  1606   0.116E-01    0.611E-02
RMM:   3    -0.116663548167E+04    0.24410E-03   -0.25296E-04  1066   0.241E-02    0.557E-02
RMM:   4    -0.116663548236E+04   -0.69381E-06   -0.10567E-04  1024   0.142E-02
  39 F= -.11736790E+04 E0= -.11736790E+04  d E =-.115515E-01  mag=    -0.0000
       N       E                     dE             d eps       ncg     rms          rms(c)
DAV:   1    -0.116663789225E+04   -0.24106E-02   -0.12334E+00  1656   0.265E+00    0.302E-01
RMM:   2    -0.116664713978E+04   -0.92475E-02   -0.97323E-02  1610   0.383E-01    0.229E-01
RMM:   3    -0.116664484382E+04    0.22960E-02   -0.29569E-03  1742   0.868E-02    0.211E-01
RMM:   4    -0.116664445694E+04    0.38688E-03   -0.13932E-03  1568   0.430E-02    0.123E-01
RMM:   5    -0.116664449655E+04   -0.39613E-04   -0.81424E-04  1570   0.352E-02
  40 F= -.11736882E+04 E0= -.11736882E+04  d E =-.922463E-02  mag=    -0.0000
       N       E                     dE             d eps       ncg     rms          rms(c)
DAV:   1    -0.116664395144E+04    0.50550E-03   -0.22082E-01  1728   0.112E+00    0.138E-01
RMM:   2    -0.116664566016E+04   -0.17087E-02   -0.17933E-02  1608   0.168E-01    0.109E-01
RMM:   3    -0.116664525781E+04    0.40236E-03   -0.50050E-04  1200   0.392E-02    0.101E-01
RMM:   4    -0.116664525023E+04    0.75782E-05   -0.16260E-04  1052   0.199E-02
  41 F= -.11736890E+04 E0= -.11736890E+04  d E =-.100593E-01  mag=    -0.0000
       N       E                     dE             d eps       ncg     rms          rms(c)
DAV:   1    -0.116664852825E+04   -0.32704E-02   -0.11612E+00  1584   0.202E+00    0.256E-01
RMM:   2    -0.116665152418E+04   -0.29959E-02   -0.35434E-02  1600   0.287E-01    0.236E-01
RMM:   3    -0.116665081516E+04    0.70902E-03   -0.19246E-03  1750   0.766E-02    0.219E-01
RMM:   4    -0.116665012214E+04    0.69302E-03   -0.23384E-03  1586   0.551E-02    0.101E-01
RMM:   5    -0.116665016847E+04   -0.46326E-04   -0.67807E-04  1552   0.330E-02
  42 F= -.11736941E+04 E0= -.11736941E+04  d E =-.504117E-02  mag=    -0.0000
       N       E                     dE             d eps       ncg     rms          rms(c)
DAV:   1    -0.116665014081E+04   -0.18672E-04   -0.81374E-03  1800   0.172E-01    0.368E-02
RMM:   2    -0.116665016214E+04   -0.21328E-04   -0.24927E-04  1052   0.254E-02
  43 F= -.11736941E+04 E0= -.11736941E+04  d E =-.502478E-02  mag=    -0.0000
       N       E                     dE             d eps       ncg     rms          rms(c)
DAV:   1    -0.116665304877E+04   -0.29080E-02   -0.65379E-01  1584   0.140E+00    0.167E-01
RMM:   2    -0.116665415130E+04   -0.11025E-02   -0.13533E-02  1590   0.184E-01    0.157E-01
RMM:   3    -0.116665395322E+04    0.19808E-03   -0.83788E-04  1508   0.502E-02    0.146E-01
RMM:   4    -0.116665377383E+04    0.17939E-03   -0.67832E-04  1480   0.324E-02    0.775E-02
RMM:   5    -0.116665382936E+04   -0.55533E-04   -0.34060E-04  1280   0.259E-02
  44 F= -.11736978E+04 E0= -.11736978E+04  d E =-.369502E-02  mag=    -0.0000
       N       E                     dE             d eps       ncg     rms          rms(c)
DAV:   1    -0.116665389865E+04   -0.12482E-03   -0.70425E-02  1728   0.460E-01    0.601E-02
RMM:   2    -0.116665403298E+04   -0.13433E-03   -0.16924E-03  1590   0.659E-02    0.548E-02
RMM:   3    -0.116665401682E+04    0.16159E-04   -0.78823E-05  1030   0.191E-02
  45 F= -.11736980E+04 E0= -.11736980E+04  d E =-.389140E-02  mag=     0.0000
       N       E                     dE             d eps       ncg     rms          rms(c)
DAV:   1    -0.116665598289E+04   -0.19499E-02   -0.75274E-01  1584   0.162E+00    0.191E-01
RMM:   2    -0.116665787036E+04   -0.18875E-02   -0.22142E-02  1602   0.218E-01    0.175E-01
RMM:   3    -0.116665741652E+04    0.45384E-03   -0.10834E-03  1562   0.553E-02    0.163E-01
RMM:   4    -0.116665720356E+04    0.21296E-03   -0.10777E-03  1528   0.397E-02    0.725E-02
RMM:   5    -0.116665726724E+04   -0.63674E-04   -0.25300E-04  1142   0.243E-02
  46 F= -.11737012E+04 E0= -.11737012E+04  d E =-.324665E-02  mag=    -0.0000
       N       E                     dE             d eps       ncg     rms          rms(c)
DAV:   1    -0.116665721918E+04   -0.15611E-04   -0.96529E-02  1584   0.580E-01    0.729E-02
RMM:   2    -0.116665746971E+04   -0.25053E-03   -0.30046E-03  1604   0.814E-02    0.666E-02
RMM:   3    -0.116665742208E+04    0.47628E-04   -0.11868E-04  1058   0.219E-02
  47 F= -.11737014E+04 E0= -.11737014E+04  d E =-.340075E-02  mag=     0.0000
       N       E                     dE             d eps       ncg     rms          rms(c)
DAV:   1    -0.116665860289E+04   -0.11332E-02   -0.83927E-01  1584   0.169E+00    0.209E-01
RMM:   2    -0.116666067704E+04   -0.20741E-02   -0.24681E-02  1604   0.233E-01    0.193E-01
RMM:   3    -0.116666016941E+04    0.50763E-03   -0.12285E-03  1620   0.580E-02    0.179E-01
RMM:   4    -0.116665989265E+04    0.27677E-03   -0.16259E-03  1556   0.472E-02    0.682E-02
RMM:   5    -0.116665995025E+04   -0.57600E-04   -0.19933E-04  1090   0.234E-02
  48 F= -.11737038E+04 E0= -.11737038E+04  d E =-.240355E-02  mag=    -0.0000
       N       E                     dE             d eps       ncg     rms          rms(c)
DAV:   1    -0.116665992047E+04   -0.27820E-04   -0.13491E-02  1800   0.216E-01    0.385E-02
RMM:   2    -0.116665995484E+04   -0.34371E-04   -0.48128E-04  1234   0.353E-02
  49 F= -.11737038E+04 E0= -.11737038E+04  d E =-.239263E-02  mag=    -0.0000
       N       E                     dE             d eps       ncg     rms          rms(c)
DAV:   1    -0.116666045809E+04   -0.53762E-03   -0.57242E-01  1584   0.145E+00    0.170E-01
RMM:   2    -0.116666223998E+04   -0.17819E-02   -0.20627E-02  1610   0.207E-01    0.156E-01
RMM:   3    -0.116666180907E+04    0.43091E-03   -0.89647E-04  1416   0.514E-02    0.146E-01
RMM:   4    -0.116666164880E+04    0.16027E-03   -0.58580E-04  1448   0.317E-02    0.837E-02
RMM:   5    -0.116666170877E+04   -0.59971E-04   -0.36216E-04  1302   0.263E-02
  50 F= -.11737055E+04 E0= -.11737055E+04  d E =-.177900E-02  mag=     0.0000
       N       E                     dE             d eps       ncg     rms          rms(c)
DAV:   1    -0.116666163187E+04    0.16926E-04   -0.36915E-02  1656   0.371E-01    0.486E-02
RMM:   2    -0.116666174942E+04   -0.11755E-03   -0.14448E-03  1556   0.554E-02    0.443E-02
RMM:   3    -0.116666172548E+04    0.23937E-04   -0.55763E-05   998   0.147E-02
  51 F= -.11737056E+04 E0= -.11737056E+04  d E =-.180287E-02  mag=     0.0000
       N       E                     dE             d eps       ncg     rms          rms(c)
DAV:   1    -0.116666149700E+04    0.25242E-03   -0.63993E-01  1584   0.156E+00    0.172E-01
RMM:   2    -0.116666362833E+04   -0.21313E-02   -0.24462E-02  1614   0.216E-01    0.155E-01
RMM:   3    -0.116666309389E+04    0.53444E-03   -0.10050E-03  1460   0.530E-02    0.145E-01
RMM:   4    -0.116666290731E+04    0.18658E-03   -0.68817E-04  1458   0.331E-02    0.798E-02
RMM:   5    -0.116666296623E+04   -0.58924E-04   -0.35230E-04  1288   0.259E-02
  52 F= -.11737069E+04 E0= -.11737069E+04  d E =-.132687E-02  mag=     0.0000
       N       E                     dE             d eps       ncg     rms          rms(c)
DAV:   1    -0.116666295242E+04   -0.45108E-04   -0.18711E-03  1800   0.865E-02    0.276E-02
RMM:   2    -0.116666295247E+04   -0.57044E-07   -0.93406E-05  1010   0.149E-02
  53 F= -.11737069E+04 E0= -.11737069E+04  d E =-.131799E-02  mag=     0.0000
       N       E                     dE             d eps       ncg     rms          rms(c)
DAV:   1    -0.116666198317E+04    0.96925E-03   -0.57132E-01  1584   0.158E+00    0.169E-01
RMM:   2    -0.116666487125E+04   -0.28881E-02   -0.31787E-02  1620   0.226E-01    0.143E-01
RMM:   3    -0.116666414359E+04    0.72766E-03   -0.10609E-03  1414   0.517E-02    0.133E-01
RMM:   4    -0.116666401130E+04    0.13229E-03   -0.76799E-04  1464   0.340E-02    0.644E-02
RMM:   5    -0.116666407799E+04   -0.66689E-04   -0.23462E-04  1128   0.230E-02
  54 F= -.11737081E+04 E0= -.11737081E+04  d E =-.120541E-02  mag=     0.0000
       N       E                     dE             d eps       ncg     rms          rms(c)
DAV:   1    -0.116666374226E+04    0.26903E-03   -0.79153E-02  1728   0.590E-01    0.623E-02
RMM:   2    -0.116666414852E+04   -0.40625E-03   -0.45744E-03  1624   0.877E-02    0.535E-02
RMM:   3    -0.116666405086E+04    0.97658E-04   -0.14447E-04  1072   0.213E-02
  55 F= -.11737081E+04 E0= -.11737081E+04  d E =-.120959E-02  mag=    -0.0000
       N       E                     dE             d eps       ncg     rms          rms(c)
DAV:   1    -0.116666440744E+04   -0.25892E-03   -0.33915E-01  1584   0.107E+00    0.136E-01
RMM:   2    -0.116666523211E+04   -0.82467E-03   -0.10565E-02  1628   0.143E-01    0.128E-01
RMM:   3    -0.116666501375E+04    0.21836E-03   -0.44557E-04  1244   0.355E-02    0.118E-01
RMM:   4    -0.116666494118E+04    0.72574E-04   -0.79705E-04  1476   0.339E-02
  56 F= -.11737090E+04 E0= -.11737090E+04  d E =-.941034E-03  mag=     0.0000
       N       E                     dE             d eps       ncg     rms          rms(c)
DAV:   1    -0.116666382369E+04    0.11901E-02   -0.65458E-01  1584   0.148E+00    0.163E-01
RMM:   2    -0.116666555071E+04   -0.17270E-02   -0.20233E-02  1626   0.197E-01    0.151E-01
RMM:   3    -0.116666518506E+04    0.36565E-03   -0.89948E-04  1414   0.480E-02    0.143E-01
RMM:   4    -0.116666507705E+04    0.10801E-03   -0.67212E-04  1462   0.327E-02    0.639E-02
RMM:   5    -0.116666517553E+04   -0.98479E-04   -0.25987E-04  1158   0.230E-02
  57 F= -.11737093E+04 E0= -.11737093E+04  d E =-.125050E-02  mag=     0.0000
       N       E                     dE             d eps       ncg     rms          rms(c)
DAV:   1    -0.116666493882E+04    0.13823E-03   -0.43703E-01  1584   0.124E+00    0.129E-01
RMM:   2    -0.116666627006E+04   -0.13312E-02   -0.15393E-02  1632   0.171E-01    0.117E-01
RMM:   3    -0.116666599988E+04    0.27019E-03   -0.63137E-04  1292   0.429E-02    0.110E-01
RMM:   4    -0.116666593540E+04    0.64478E-04   -0.37893E-04  1304   0.254E-02
  58 F= -.11737102E+04 E0= -.11737102E+04  d E =-.843529E-03  mag=    -0.0000
       N       E                     dE             d eps       ncg     rms          rms(c)
DAV:   1    -0.116666164277E+04    0.43571E-02   -0.16978E+00  1584   0.245E+00    0.261E-01
RMM:   2    -0.116666685343E+04   -0.52107E-02   -0.58708E-02  1632   0.329E-01    0.235E-01
RMM:   3    -0.116666577931E+04    0.10741E-02   -0.25132E-03  1728   0.798E-02    0.220E-01
RMM:   4    -0.116666537019E+04    0.40912E-03   -0.16196E-03  1544   0.469E-02    0.108E-01
RMM:   5    -0.116666556102E+04   -0.19083E-03   -0.79192E-04  1470   0.344E-02    0.449E-02
RMM:   6    -0.116666552079E+04    0.40227E-04   -0.20144E-04  1128   0.192E-02
  59 F= -.11737099E+04 E0= -.11737099E+04  d E =-.603538E-03  mag=     0.0000
       N       E                     dE             d eps       ncg     rms          rms(c)
DAV:   1    -0.116666507231E+04    0.48871E-03   -0.52931E-01  1584   0.137E+00    0.141E-01
RMM:   2    -0.116666664812E+04   -0.15758E-02   -0.18349E-02  1634   0.185E-01    0.126E-01
RMM:   3    -0.116666628150E+04    0.36663E-03   -0.73558E-04  1338   0.454E-02    0.118E-01
RMM:   4    -0.116666610199E+04    0.17951E-03   -0.76656E-04  1454   0.331E-02    0.495E-02
RMM:   5    -0.116666614772E+04   -0.45737E-04   -0.18467E-04  1104   0.204E-02
  60 F= -.11737105E+04 E0= -.11737105E+04  d E =-.113193E-02  mag=    -0.0000
       N       E                     dE             d eps       ncg     rms          rms(c)
DAV:   1    -0.116666663606E+04   -0.53408E-03   -0.22933E-01  1584   0.925E-01    0.966E-02
RMM:   2    -0.116666741011E+04   -0.77404E-03   -0.89370E-03  1620   0.130E-01    0.826E-02
RMM:   3    -0.116666717642E+04    0.23369E-03   -0.30056E-04  1194   0.298E-02    0.752E-02
RMM:   4    -0.116666706844E+04    0.10798E-03   -0.65947E-04  1442   0.297E-02    0.235E-02
RMM:   5    -0.116666707548E+04   -0.70402E-05   -0.40377E-05  1010   0.138E-02
  61 F= -.11737114E+04 E0= -.11737114E+04  d E =-.930114E-03  mag=     0.0000
       N       E                     dE             d eps       ncg     rms          rms(c)
DAV:   1    -0.116666668514E+04    0.38330E-03   -0.23694E-01  1584   0.939E-01    0.104E-01
RMM:   2    -0.116666749803E+04   -0.81288E-03   -0.95334E-03  1624   0.136E-01    0.936E-02
RMM:   3    -0.116666729071E+04    0.20731E-03   -0.33540E-04  1206   0.323E-02    0.877E-02
RMM:   4    -0.116666725141E+04    0.39305E-04   -0.34217E-04  1296   0.239E-02
  62 F= -.11737116E+04 E0= -.11737116E+04  d E =-.111039E-02  mag=    -0.0000
       N       E                     dE             d eps       ncg     rms          rms(c)
DAV:   1    -0.116666772634E+04   -0.43562E-03   -0.17445E-01  1584   0.728E-01    0.849E-02
RMM:   2    -0.116666805184E+04   -0.32550E-03   -0.43838E-03  1614   0.982E-02    0.812E-02
RMM:   3    -0.116666796254E+04    0.89297E-04   -0.18050E-04  1148   0.242E-02
  63 F= -.11737123E+04 E0= -.11737123E+04  d E =-.684641E-03  mag=     0.0000
       N       E                     dE             d eps       ncg     rms          rms(c)
DAV:   1    -0.116666717774E+04    0.87409E-03   -0.92321E-01  1584   0.167E+00    0.222E-01
RMM:   2    -0.116666895489E+04   -0.17771E-02   -0.23414E-02  1618   0.227E-01    0.211E-01
RMM:   3    -0.116666841506E+04    0.53983E-03   -0.11248E-03  1498   0.557E-02    0.194E-01
RMM:   4    -0.116666809113E+04    0.32393E-03   -0.26988E-03  1586   0.587E-02    0.589E-02
RMM:   5    -0.116666814859E+04   -0.57459E-04   -0.14761E-04  1084   0.216E-02
  64 F= -.11737124E+04 E0= -.11737124E+04  d E =-.814724E-03  mag=     0.0000
