       N       E                     dE             d eps       ncg     rms          rms(c)
DAV:   1     0.482390644319E+04    0.48239E+04   -0.17247E+05  1872   0.905E+02
DAV:   2    -0.745690070257E+02   -0.48985E+04   -0.44507E+04  2520   0.205E+02
DAV:   3    -0.119198525593E+04   -0.11174E+04   -0.11129E+04  2160   0.109E+02
DAV:   4    -0.123605598479E+04   -0.44071E+02   -0.43881E+02  2016   0.284E+01
DAV:   5    -0.123720608195E+04   -0.11501E+01   -0.11482E+01  2376   0.435E+00    0.663E+01
RMM:   6    -0.121811239152E+04    0.19094E+02   -0.26681E+01  1787   0.470E+00    0.519E+01
RMM:   7    -0.120064409449E+04    0.17468E+02   -0.12619E+01  1616   0.386E+00    0.408E+01
RMM:   8    -0.117270527938E+04    0.27939E+02   -0.43368E+01  1593   0.728E+00    0.253E+01
RMM:   9    -0.116591486078E+04    0.67904E+01   -0.21156E+01  1593   0.512E+00    0.163E+01
RMM:  10    -0.116722764951E+04   -0.13128E+01   -0.11237E+01  1602   0.377E+00    0.856E+00
RMM:  11    -0.116692860673E+04    0.29904E+00   -0.72310E-01  1794   0.112E+00    0.622E+00
RMM:  12    -0.116648139920E+04    0.44721E+00   -0.11291E+00  1613   0.109E+00    0.297E+00
RMM:  13    -0.116621525899E+04    0.26614E+00   -0.48505E-01  1618   0.738E-01    0.137E+00
RMM:  14    -0.116620359194E+04    0.11667E-01   -0.13659E-01  1720   0.421E-01    0.541E-01
RMM:  15    -0.116620005665E+04    0.35353E-02   -0.13092E-02  1808   0.145E-01    0.276E-01
RMM:  16    -0.116619927945E+04    0.77720E-03   -0.40694E-03  1690   0.676E-02    0.186E-01
RMM:  17    -0.116619966584E+04   -0.38639E-03   -0.15472E-03  1630   0.482E-02    0.136E-01
RMM:  18    -0.116619966123E+04    0.46097E-05   -0.46770E-04  1219   0.257E-02
   1 F= -.11734373E+04 E0= -.11734373E+04  d E =-.117344E+04  mag=     1.0071
       N       E                     dE             d eps       ncg     rms          rms(c)
DAV:   1    -0.116619875814E+04    0.90770E-03   -0.33080E-01  1656   0.945E-01    0.230E-01
RMM:   2    -0.116620084342E+04   -0.20853E-02   -0.26794E-02  1880   0.205E-01    0.200E-01
RMM:   3    -0.116620059412E+04    0.24930E-03   -0.17278E-03  1448   0.606E-02    0.256E-01
RMM:   4    -0.116620063451E+04   -0.40392E-04   -0.27360E-04  1139   0.180E-02
   2 F= -.11734386E+04 E0= -.11734386E+04  d E =-.124667E-02  mag=     1.0023
       N       E                     dE             d eps       ncg     rms          rms(c)
DAV:   1    -0.116620015767E+04    0.43645E-03   -0.22205E-02  1656   0.245E-01    0.262E-01
RMM:   2    -0.116619977626E+04    0.38142E-03   -0.16803E-03  1726   0.521E-02    0.251E-01
RMM:   3    -0.116619890798E+04    0.86827E-03   -0.89812E-04  1578   0.349E-02    0.188E-01
RMM:   4    -0.116619850229E+04    0.40569E-03   -0.25337E-03  1588   0.546E-02    0.665E-02
RMM:   5    -0.116619846189E+04    0.40402E-04   -0.74838E-05  1060   0.136E-02
   3 F= -.11734365E+04 E0= -.11734365E+04  d E =0.851018E-03  mag=     1.0010
       N       E                     dE             d eps       ncg     rms          rms(c)
DAV:   1    -0.116619938303E+04   -0.88074E-03   -0.17531E-02  1872   0.216E-01    0.694E-02
RMM:   2    -0.116619945455E+04   -0.71523E-04   -0.12526E-03  1528   0.451E-02    0.458E-02
RMM:   3    -0.116619941862E+04    0.35938E-04   -0.90112E-05  1042   0.151E-02
   4 F= -.11734374E+04 E0= -.11734374E+04  d E =-.400837E-04  mag=     1.0002
