       N       E                     dE             d eps       ncg     rms          rms(c)
DAV:   1     0.488491605185E+04    0.48849E+04   -0.16813E+05  1800   0.900E+02
DAV:   2    -0.690396647281E+02   -0.49540E+04   -0.45103E+04  2556   0.208E+02
DAV:   3    -0.118183457045E+04   -0.11128E+04   -0.11081E+04  2160   0.109E+02
DAV:   4    -0.122583636367E+04   -0.44002E+02   -0.43803E+02  2052   0.284E+01
DAV:   5    -0.122698472738E+04   -0.11484E+01   -0.11466E+01  2376   0.422E+00    0.623E+01
RMM:   6    -0.121165414740E+04    0.15331E+02   -0.13541E+01  1584   0.391E+00    0.496E+01
RMM:   7    -0.118755421348E+04    0.24100E+02   -0.21448E+01  1584   0.530E+00    0.352E+01
RMM:   8    -0.116505224745E+04    0.22502E+02   -0.34388E+01  1584   0.665E+00    0.233E+01
RMM:   9    -0.116231747429E+04    0.27348E+01   -0.34004E+01  1584   0.660E+00    0.971E+00
RMM:  10    -0.116260854110E+04   -0.29107E+00   -0.14763E+00  1619   0.155E+00    0.779E+00
RMM:  11    -0.116182230190E+04    0.78624E+00   -0.28846E+00  1584   0.184E+00    0.216E+00
RMM:  12    -0.116175597030E+04    0.66332E-01   -0.14549E-01  1584   0.421E-01    0.145E+00
RMM:  13    -0.116171390638E+04    0.42064E-01   -0.10479E-01  1584   0.359E-01    0.623E-01
RMM:  14    -0.116171099632E+04    0.29101E-02   -0.37801E-02  1585   0.223E-01    0.289E-01
RMM:  15    -0.116170962027E+04    0.13761E-02   -0.53405E-03  1620   0.837E-02    0.185E-01
RMM:  16    -0.116171007459E+04   -0.45432E-03   -0.13907E-03  1581   0.438E-02    0.117E-01
RMM:  17    -0.116171014576E+04   -0.71176E-04   -0.66152E-04  1387   0.301E-02
   1 F= -.11688304E+04 E0= -.11688292E+04  d E =-.116883E+04  mag=    -0.9797
       N       E                     dE             d eps       ncg     rms          rms(c)
DAV:   1    -0.116171049261E+04   -0.41802E-03   -0.16025E+00  1800   0.190E+00    0.450E-01
RMM:   2    -0.116171243323E+04   -0.19406E-02   -0.32568E-02  1584   0.245E-01    0.416E-01
RMM:   3    -0.116171148755E+04    0.94568E-03   -0.23277E-03  1692   0.564E-02    0.365E-01
RMM:   4    -0.116170926799E+04    0.22196E-02   -0.67292E-03  1584   0.928E-02    0.135E-01
RMM:   5    -0.116170931817E+04   -0.50175E-04   -0.91721E-04  1584   0.351E-02
   2 F= -.11688301E+04 E0= -.11688289E+04  d E =0.340841E-03  mag=    -0.9762
       N       E                     dE             d eps       ncg     rms          rms(c)
DAV:   1    -0.116171340305E+04   -0.41351E-02   -0.43273E-01  1728   0.981E-01    0.225E-01
RMM:   2    -0.116171376744E+04   -0.36439E-03   -0.74277E-03  1584   0.123E-01    0.203E-01
RMM:   3    -0.116171340678E+04    0.36066E-03   -0.53593E-04  1311   0.288E-02    0.168E-01
RMM:   4    -0.116171285813E+04    0.54865E-03   -0.21547E-03  1584   0.523E-02    0.559E-02
RMM:   5    -0.116171286707E+04   -0.89459E-05   -0.10625E-04  1049   0.139E-02
   3 F= -.11688334E+04 E0= -.11688322E+04  d E =-.295720E-02  mag=    -0.9750
       N       E                     dE             d eps       ncg     rms          rms(c)
DAV:   1    -0.116171513658E+04   -0.22785E-02   -0.10456E+00  1692   0.159E+00    0.340E-01
RMM:   2    -0.116171596486E+04   -0.82828E-03   -0.18210E-02  1584   0.197E-01    0.296E-01
RMM:   3    -0.116171496313E+04    0.10017E-02   -0.14066E-03  1631   0.477E-02    0.235E-01
RMM:   4    -0.116171378765E+04    0.11755E-02   -0.45671E-03  1584   0.731E-02    0.816E-02
RMM:   5    -0.116171376744E+04    0.20210E-04   -0.29163E-04  1175   0.213E-02
   4 F= -.11688343E+04 E0= -.11688332E+04  d E =-.927278E-03  mag=    -0.9745
       N       E                     dE             d eps       ncg     rms          rms(c)
DAV:   1    -0.116171522037E+04   -0.14327E-02   -0.19486E-01  1728   0.689E-01    0.139E-01
RMM:   2    -0.116171530240E+04   -0.82034E-04   -0.30850E-03  1584   0.814E-02    0.124E-01
RMM:   3    -0.116171505804E+04    0.24436E-03   -0.25535E-04  1136   0.215E-02    0.961E-02
RMM:   4    -0.116171480433E+04    0.25372E-03   -0.11415E-03  1579   0.370E-02    0.318E-02
RMM:   5    -0.116171480275E+04    0.15778E-05   -0.34114E-05  1002   0.858E-03
   5 F= -.11688353E+04 E0= -.11688342E+04  d E =-.195285E-02  mag=    -0.9745
       N       E                     dE             d eps       ncg     rms          rms(c)
DAV:   1    -0.116171628998E+04   -0.14856E-02   -0.78448E-01  1728   0.136E+00    0.185E-01
RMM:   2    -0.116171713863E+04   -0.84866E-03   -0.12362E-02  1584   0.166E-01    0.173E-01
RMM:   3    -0.116171694652E+04    0.19212E-03   -0.73722E-04  1387   0.364E-02    0.155E-01
RMM:   4    -0.116171650533E+04    0.44119E-03   -0.17025E-03  1574   0.450E-02    0.603E-02
RMM:   5    -0.116171650767E+04   -0.23464E-05   -0.17873E-04  1092   0.167E-02
   6 F= -.11688370E+04 E0= -.11688359E+04  d E =-.170204E-02  mag=    -0.9748
       N       E                     dE             d eps       ncg     rms          rms(c)
DAV:   1    -0.116171657581E+04   -0.70480E-04   -0.15853E-02  1728   0.196E-01    0.308E-02
RMM:   2    -0.116171658800E+04   -0.12198E-04   -0.21474E-04  1091   0.231E-02
   7 F= -.11688371E+04 E0= -.11688360E+04  d E =-.178287E-02  mag=    -0.9748
       N       E                     dE             d eps       ncg     rms          rms(c)
DAV:   1    -0.116171787093E+04   -0.12951E-02   -0.38263E-01  1764   0.948E-01    0.107E-01
RMM:   2    -0.116171824674E+04   -0.37581E-03   -0.52859E-03  1587   0.109E-01    0.103E-01
RMM:   3    -0.116171820799E+04    0.38749E-04   -0.27380E-04  1170   0.236E-02
   8 F= -.11688389E+04 E0= -.11688377E+04  d E =-.173818E-02  mag=    -0.9753
       N       E                     dE             d eps       ncg     rms          rms(c)
DAV:   1    -0.116171678924E+04    0.14575E-02   -0.17584E+00  1620   0.204E+00    0.269E-01
RMM:   2    -0.116171848237E+04   -0.16931E-02   -0.23460E-02  1587   0.228E-01    0.257E-01
RMM:   3    -0.116171826569E+04    0.21669E-03   -0.15164E-03  1615   0.511E-02    0.234E-01
RMM:   4    -0.116171781738E+04    0.44831E-03   -0.38354E-03  1584   0.685E-02    0.680E-02
RMM:   5    -0.116171783587E+04   -0.18487E-04   -0.16381E-04  1097   0.171E-02
   9 F= -.11688388E+04 E0= -.11688377E+04  d E =-.163396E-02  mag=    -0.9761
       N       E                     dE             d eps       ncg     rms          rms(c)
DAV:   1    -0.116171860579E+04   -0.78841E-03   -0.39282E-01  1728   0.963E-01    0.110E-01
RMM:   2    -0.116171893166E+04   -0.32587E-03   -0.48981E-03  1590   0.105E-01    0.103E-01
RMM:   3    -0.116171880770E+04    0.12396E-03   -0.25549E-04  1157   0.231E-02    0.901E-02
RMM:   4    -0.116171862663E+04    0.18107E-03   -0.13948E-03  1549   0.404E-02    0.262E-02
RMM:   5    -0.116171860629E+04    0.20336E-04   -0.38999E-05  1007   0.935E-03
  10 F= -.11688394E+04 E0= -.11688383E+04  d E =-.227622E-02  mag=    -0.9757
       N       E                     dE             d eps       ncg     rms          rms(c)
DAV:   1    -0.116172012802E+04   -0.15014E-02   -0.29968E-01  1584   0.837E-01    0.903E-02
RMM:   2    -0.116172044643E+04   -0.31841E-03   -0.43368E-03  1584   0.970E-02    0.877E-02
RMM:   3    -0.116172040996E+04    0.36466E-04   -0.24573E-04  1164   0.221E-02
  11 F= -.11688411E+04 E0= -.11688400E+04  d E =-.174022E-02  mag=    -0.9758
       N       E                     dE             d eps       ncg     rms          rms(c)
DAV:   1    -0.116171995772E+04    0.48871E-03   -0.26569E+00  1584   0.249E+00    0.316E-01
RMM:   2    -0.116172269619E+04   -0.27385E-02   -0.37322E-02  1584   0.284E-01    0.305E-01
RMM:   3    -0.116172242191E+04    0.27429E-03   -0.26224E-03  1710   0.662E-02    0.283E-01
RMM:   4    -0.116172144491E+04    0.97700E-03   -0.56008E-03  1584   0.813E-02    0.847E-02
RMM:   5    -0.116172153645E+04   -0.91542E-04   -0.39118E-04  1258   0.235E-02
  12 F= -.11688421E+04 E0= -.11688410E+04  d E =-.270316E-02  mag=    -0.9762
       N       E                     dE             d eps       ncg     rms          rms(c)
DAV:   1    -0.116172261044E+04   -0.11655E-02   -0.35953E-01  1728   0.975E-01    0.151E-01
RMM:   2    -0.116172327103E+04   -0.66059E-03   -0.87165E-03  1587   0.142E-01    0.147E-01
RMM:   3    -0.116172317587E+04    0.95154E-04   -0.40897E-04  1234   0.274E-02
  13 F= -.11688439E+04 E0= -.11688428E+04  d E =-.183010E-02  mag=    -0.9757
       N       E                     dE             d eps       ncg     rms          rms(c)
DAV:   1    -0.116172340425E+04   -0.13322E-03   -0.36307E-02  1728   0.311E-01    0.504E-02
RMM:   2    -0.116172353964E+04   -0.13540E-03   -0.17971E-03  1584   0.648E-02    0.507E-02
RMM:   3    -0.116172351639E+04    0.23255E-04   -0.49690E-05   996   0.113E-02
  14 F= -.11688442E+04 E0= -.11688431E+04  d E =-.211698E-02  mag=    -0.9758
       N       E                     dE             d eps       ncg     rms          rms(c)
DAV:   1    -0.116172408988E+04   -0.55023E-03   -0.12439E-01  1728   0.563E-01    0.848E-02
RMM:   2    -0.116172430122E+04   -0.21135E-03   -0.27997E-03  1586   0.803E-02    0.818E-02
RMM:   3    -0.116172427011E+04    0.31109E-04   -0.13588E-04  1098   0.166E-02
  15 F= -.11688449E+04 E0= -.11688438E+04  d E =-.687955E-03  mag=    -0.9759
       N       E                     dE             d eps       ncg     rms          rms(c)
DAV:   1    -0.116172427946E+04    0.21759E-04   -0.81533E-03  1656   0.147E-01    0.272E-02
RMM:   2    -0.116172430284E+04   -0.23373E-04   -0.41496E-04  1247   0.317E-02
  16 F= -.11688450E+04 E0= -.11688438E+04  d E =-.734205E-03  mag=    -0.9759
