       N       E                     dE             d eps       ncg     rms          rms(c)
DAV:   1     0.517241214823E+04    0.51724E+04   -0.16979E+05  1800   0.916E+02
DAV:   2     0.440899496408E+02   -0.51283E+04   -0.46577E+04  2484   0.218E+02
DAV:   3    -0.117505636230E+04   -0.12191E+04   -0.12107E+04  2160   0.116E+02
DAV:   4    -0.123178193391E+04   -0.56726E+02   -0.56330E+02  2088   0.340E+01
DAV:   5    -0.123389667744E+04   -0.21147E+01   -0.21098E+01  2556   0.618E+00    0.609E+01
RMM:   6    -0.122007419353E+04    0.13822E+02   -0.67091E+00  1802   0.335E+00    0.492E+01
RMM:   7    -0.118493906496E+04    0.35135E+02   -0.42371E+01  1983   0.873E+00    0.313E+01
RMM:   8    -0.117565647671E+04    0.92826E+01   -0.93078E+00  1989   0.626E+00    0.250E+01
RMM:   9    -0.116801336558E+04    0.76431E+01   -0.22917E+01  1948   0.657E+00    0.151E+01
RMM:  10    -0.116930556701E+04   -0.12922E+01   -0.86030E+00  1970   0.586E+00    0.818E+00
RMM:  11    -0.116910305707E+04    0.20251E+00   -0.13319E+00  2026   0.260E+00    0.582E+00
RMM:  12    -0.116851753305E+04    0.58552E+00   -0.29414E+00  1876   0.236E+00    0.227E+00
RMM:  13    -0.116847367146E+04    0.43862E-01   -0.40771E-01  1864   0.241E+00    0.864E-01
RMM:  14    -0.116848075436E+04   -0.70829E-02   -0.79797E-02  1871   0.105E+00    0.589E-01
RMM:  15    -0.116848103571E+04   -0.28135E-03   -0.43280E-02  1957   0.525E-01    0.340E-01
RMM:  16    -0.116848254715E+04   -0.15114E-02   -0.13504E-02  2017   0.230E-01    0.207E-01
RMM:  17    -0.116848200853E+04    0.53862E-03   -0.37406E-03  1958   0.988E-02    0.130E-01
RMM:  18    -0.116848223271E+04   -0.22418E-03   -0.72149E-04  1586   0.561E-02    0.783E-02
RMM:  19    -0.116848235311E+04   -0.12040E-03   -0.30419E-04  1171   0.476E-02    0.731E-02
RMM:  20    -0.116848232002E+04    0.33088E-04   -0.17664E-04  1138   0.305E-02
   1 F= -.11761378E+04 E0= -.11761378E+04  d E =-.117614E+04  mag=     1.0003
       N       E                     dE             d eps       ncg     rms          rms(c)
DAV:   1    -0.116848292042E+04   -0.56731E-03   -0.30942E-01  1944   0.904E-01    0.355E-01
RMM:   2    -0.116848358625E+04   -0.66583E-03   -0.13983E-02  1993   0.151E-01    0.262E-01
RMM:   3    -0.116848309430E+04    0.49195E-03   -0.14154E-03  1745   0.707E-02    0.185E-01
RMM:   4    -0.116848275441E+04    0.33989E-03   -0.64085E-04  1517   0.594E-02    0.121E-01
RMM:   5    -0.116848271212E+04    0.42293E-04   -0.14128E-03  1749   0.591E-02    0.484E-02
RMM:   6    -0.116848270727E+04    0.48463E-05   -0.14006E-04  1120   0.497E-02
   2 F= -.11761383E+04 E0= -.11761383E+04  d E =-.499113E-03  mag=     1.0000
       N       E                     dE             d eps       ncg     rms          rms(c)
DAV:   1    -0.116848323834E+04   -0.52622E-03   -0.49105E-02  2052   0.357E-01    0.134E-01
RMM:   2    -0.116848321375E+04    0.24597E-04   -0.12922E-03  1497   0.513E-02    0.101E-01
RMM:   3    -0.116848311300E+04    0.10075E-03   -0.18956E-04  1047   0.442E-02    0.702E-02
RMM:   4    -0.116848304124E+04    0.71756E-04   -0.18252E-04  1112   0.288E-02
   3 F= -.11761386E+04 E0= -.11761386E+04  d E =-.788349E-03  mag=     1.0000
