       N       E                     dE             d eps       ncg     rms          rms(c)
DAV:   1     0.478289669292E+04    0.47829E+04   -0.18317E+05  1944   0.940E+02
DAV:   2    -0.751994303302E+02   -0.48581E+04   -0.44566E+04  2592   0.209E+02
DAV:   3    -0.120063294890E+04   -0.11254E+04   -0.11198E+04  2088   0.109E+02
DAV:   4    -0.124476278788E+04   -0.44130E+02   -0.43833E+02  2016   0.285E+01
DAV:   5    -0.124585488767E+04   -0.10921E+01   -0.10886E+01  2340   0.411E+00    0.684E+01
RMM:   6    -0.123247501867E+04    0.13380E+02   -0.38598E+01  1602   0.580E+00    0.587E+01
RMM:   7    -0.121806891442E+04    0.14406E+02   -0.57807E+00  1588   0.285E+00    0.459E+01
RMM:   8    -0.119429307067E+04    0.23776E+02   -0.26491E+01  1584   0.605E+00    0.311E+01
RMM:   9    -0.118012403868E+04    0.14169E+02   -0.22513E+01  1584   0.551E+00    0.221E+01
RMM:  10    -0.118005427404E+04    0.69765E-01   -0.22636E+01  1584   0.543E+00    0.115E+01
RMM:  11    -0.117941903730E+04    0.63524E+00   -0.22273E+00  1616   0.182E+00    0.691E+00
RMM:  12    -0.117910888433E+04    0.31015E+00   -0.36571E-01  1599   0.631E-01    0.520E+00
RMM:  13    -0.117863558696E+04    0.47330E+00   -0.19041E+00  1584   0.157E+00    0.113E+00
RMM:  14    -0.117861643792E+04    0.19149E-01   -0.46314E-02  1609   0.275E-01    0.804E-01
RMM:  15    -0.117861454421E+04    0.18937E-02   -0.17183E-02  1588   0.140E-01    0.521E-01
RMM:  16    -0.117861404323E+04    0.50098E-03   -0.15212E-02  1584   0.144E-01    0.326E-01
RMM:  17    -0.117861259712E+04    0.14461E-02   -0.32389E-03  1584   0.672E-02    0.217E-01
RMM:  18    -0.117861239416E+04    0.20297E-03   -0.55845E-04  1391   0.274E-02    0.122E-01
RMM:  19    -0.117861257576E+04   -0.18160E-03   -0.24725E-04  1049   0.196E-02    0.763E-02
RMM:  20    -0.117861255142E+04    0.24338E-04   -0.46577E-05   998   0.954E-03
   1 F= -.11858470E+04 E0= -.11858470E+04  d E =-.118585E+04  mag=     0.0005
       N       E                     dE             d eps       ncg     rms          rms(c)
DAV:   1    -0.117859886152E+04    0.13714E-01   -0.38740E+00  1620   0.312E+00    0.888E-01
RMM:   2    -0.117861032940E+04   -0.11468E-01   -0.13691E-01  1595   0.486E-01    0.903E-01
RMM:   3    -0.117860864593E+04    0.16835E-02   -0.70572E-03  1795   0.976E-02    0.893E-01
RMM:   4    -0.117860684046E+04    0.18055E-02   -0.19486E-03  1594   0.523E-02    0.703E-01
RMM:   5    -0.117860649908E+04    0.34138E-03   -0.17994E-02  1584   0.153E-01    0.200E-01
RMM:   6    -0.117860626122E+04    0.23785E-03   -0.58032E-04  1378   0.320E-02    0.186E-01
RMM:   7    -0.117860539932E+04    0.86191E-03   -0.15347E-03  1537   0.402E-02    0.961E-02
RMM:   8    -0.117860555198E+04   -0.15266E-03   -0.51970E-05  1002   0.104E-02    0.105E-01
RMM:   9    -0.117860529946E+04    0.25251E-03   -0.85247E-04  1523   0.323E-02    0.214E-02
RMM:  10    -0.117860530063E+04   -0.11631E-05   -0.10073E-04  1003   0.122E-02
   2 F= -.11858413E+04 E0= -.11858413E+04  d E =0.574684E-02  mag=    -0.0000
       N       E                     dE             d eps       ncg     rms          rms(c)
DAV:   1    -0.117861389640E+04   -0.85969E-02   -0.14465E+00  1620   0.190E+00    0.552E-01
RMM:   2    -0.117861774705E+04   -0.38507E-02   -0.47467E-02  1590   0.291E-01    0.559E-01
RMM:   3    -0.117861707017E+04    0.67689E-03   -0.22347E-03  1561   0.558E-02    0.549E-01
RMM:   4    -0.117861615083E+04    0.91934E-03   -0.13779E-03  1576   0.436E-02    0.375E-01
RMM:   5    -0.117861626170E+04   -0.11087E-03   -0.51769E-03  1584   0.823E-02    0.101E-01
RMM:   6    -0.117861610561E+04    0.15609E-03   -0.11174E-04  1055   0.159E-02    0.896E-02
RMM:   7    -0.117861590849E+04    0.19712E-03   -0.20970E-03  1557   0.465E-02    0.447E-02
RMM:   8    -0.117861588928E+04    0.19210E-04   -0.34755E-04  1245   0.203E-02
   3 F= -.11858510E+04 E0= -.11858510E+04  d E =-.393812E-02  mag=     0.0000
       N       E                     dE             d eps       ncg     rms          rms(c)
DAV:   1    -0.117861588151E+04    0.26982E-04   -0.88648E-01  1584   0.157E+00    0.425E-01
RMM:   2    -0.117861860846E+04   -0.27270E-02   -0.38764E-02  1596   0.249E-01    0.395E-01
RMM:   3    -0.117861714262E+04    0.14658E-02   -0.15333E-03  1492   0.494E-02    0.350E-01
RMM:   4    -0.117861606136E+04    0.10813E-02   -0.70193E-03  1584   0.940E-02    0.104E-01
RMM:   5    -0.117861605841E+04    0.29469E-05   -0.29861E-04  1172   0.235E-02
   4 F= -.11858514E+04 E0= -.11858514E+04  d E =-.416873E-03  mag=    -0.0000
       N       E                     dE             d eps       ncg     rms          rms(c)
DAV:   1    -0.117861749562E+04   -0.14343E-02   -0.21848E-01  1728   0.781E-01    0.198E-01
RMM:   2    -0.117861799905E+04   -0.50343E-03   -0.90677E-03  1596   0.118E-01    0.183E-01
RMM:   3    -0.117861753377E+04    0.46528E-03   -0.37012E-04  1128   0.251E-02    0.159E-01
RMM:   4    -0.117861713995E+04    0.39382E-03   -0.23239E-03  1584   0.537E-02    0.532E-02
RMM:   5    -0.117861713439E+04    0.55632E-05   -0.68302E-05   992   0.123E-02
   5 F= -.11858523E+04 E0= -.11858523E+04  d E =-.136992E-02  mag=    -0.0000
       N       E                     dE             d eps       ncg     rms          rms(c)
DAV:   1    -0.117861709538E+04    0.44574E-04   -0.20624E-01  1728   0.747E-01    0.122E-01
RMM:   2    -0.117861746835E+04   -0.37297E-03   -0.58309E-03  1584   0.110E-01    0.110E-01
RMM:   3    -0.117861729725E+04    0.17110E-03   -0.18940E-04  1104   0.209E-02    0.989E-02
RMM:   4    -0.117861716020E+04    0.13705E-03   -0.12430E-03  1574   0.402E-02    0.354E-02
RMM:   5    -0.117861713788E+04    0.22321E-04   -0.24519E-05   986   0.796E-03
   6 F= -.11858525E+04 E0= -.11858525E+04  d E =-.172108E-03  mag=    -0.0000
       N       E                     dE             d eps       ncg     rms          rms(c)
DAV:   1    -0.117861747335E+04   -0.31315E-03   -0.38207E-02  1728   0.322E-01    0.468E-02
RMM:   2    -0.117861753629E+04   -0.62939E-04   -0.97516E-04  1434   0.449E-02
   7 F= -.11858528E+04 E0= -.11858528E+04  d E =-.497153E-03  mag=    -0.0000
