       N       E                     dE             d eps       ncg     rms          rms(c)
DAV:   1     0.460523655935E+04    0.46052E+04   -0.17961E+05  1920   0.948E+02
DAV:   2    -0.784361503337E+02   -0.46837E+04   -0.42697E+04  2400   0.208E+02
DAV:   3    -0.120010738252E+04   -0.11217E+04   -0.11170E+04  2016   0.110E+02
DAV:   4    -0.124670462869E+04   -0.46597E+02   -0.46312E+02  1888   0.297E+01
DAV:   5    -0.124790926740E+04   -0.12046E+01   -0.12011E+01  2304   0.448E+00    0.702E+01
RMM:   6    -0.123117563990E+04    0.16734E+02   -0.93329E+00  1591   0.369E+00    0.554E+01
RMM:   7    -0.119733579364E+04    0.33840E+02   -0.62635E+01  1588   0.947E+00    0.316E+01
RMM:   8    -0.118487578318E+04    0.12460E+02   -0.21647E+01  1546   0.631E+00    0.241E+01
RMM:   9    -0.118232435715E+04    0.25514E+01   -0.26824E+01  1565   0.663E+00    0.148E+01
RMM:  10    -0.118146322555E+04    0.86113E+00   -0.70078E+00  1705   0.363E+00    0.116E+01
RMM:  11    -0.118302794951E+04   -0.15647E+01   -0.31372E+00  1576   0.223E+00    0.831E+00
RMM:  12    -0.118071923817E+04    0.23087E+01   -0.19329E+00  1549   0.173E+00    0.424E+00
RMM:  13    -0.118067874518E+04    0.40493E-01   -0.37564E-01  1551   0.851E-01    0.295E+00
RMM:  14    -0.118053989104E+04    0.13885E+00   -0.14435E-01  1696   0.445E-01    0.210E+00
RMM:  15    -0.118050389944E+04    0.35992E-01   -0.55659E-02  1604   0.268E-01    0.190E+00
RMM:  16    -0.118050192887E+04    0.19706E-02   -0.13732E-02  1928   0.136E-01    0.202E+00
RMM:  17    -0.118046344938E+04    0.38479E-01   -0.51444E-02  1596   0.256E-01    0.143E+00
RMM:  18    -0.118046203816E+04    0.14112E-02   -0.12836E-02  1648   0.134E-01    0.150E+00
RMM:  19    -0.118046155014E+04    0.48802E-03   -0.37424E-03  1919   0.600E-02    0.161E+00
RMM:  20    -0.118045944696E+04    0.21032E-02   -0.28310E-03  1643   0.534E-02    0.166E+00
RMM:  21    -0.118046170435E+04   -0.22574E-02   -0.91805E-03  1878   0.103E-01    0.264E+00
RMM:  22    -0.118046161445E+04    0.89904E-04   -0.17430E-03  1711   0.448E-02    0.237E+00
RMM:  23    -0.118046006572E+04    0.15487E-02   -0.11538E-03  1688   0.317E-02    0.213E+00
RMM:  24    -0.118045869133E+04    0.13744E-02   -0.41013E-03  2061   0.673E-02    0.116E+00
RMM:  25    -0.118045835181E+04    0.33952E-03   -0.34660E-03  2142   0.653E-02    0.393E-01
RMM:  26    -0.118045829193E+04    0.59877E-04   -0.31530E-04  1610   0.194E-02    0.428E-01
RMM:  27    -0.118045821450E+04    0.77431E-04   -0.24638E-04  1589   0.147E-02    0.305E-01
RMM:  28    -0.118045820646E+04    0.80369E-05   -0.15439E-04  1697   0.101E-02    0.269E-01
RMM:  29    -0.118045818552E+04    0.20943E-04   -0.10851E-04  1618   0.895E-03    0.186E-01
RMM:  30    -0.118045820108E+04   -0.15556E-04   -0.81104E-05  1618   0.779E-03    0.125E-01
RMM:  31    -0.118045817459E+04    0.26489E-04   -0.71644E-05  1755   0.774E-03    0.887E-02
RMM:  32    -0.118045817716E+04   -0.25744E-05   -0.42709E-05  1634   0.503E-03    0.747E-02
RMM:  33    -0.118045817518E+04    0.19860E-05   -0.25393E-05  1464   0.323E-03    0.461E-02
RMM:  34    -0.118045817759E+04   -0.24117E-05   -0.21132E-05  1107   0.209E-03    0.482E-02
RMM:  35    -0.118045817901E+04   -0.14265E-05   -0.14081E-05  1025   0.118E-03    0.604E-02
RMM:  36    -0.118045818012E+04   -0.11089E-05   -0.11006E-05  1047   0.154E-03    0.442E-02
RMM:  37    -0.118045818128E+04   -0.11568E-05   -0.98589E-06  1033   0.120E-03    0.409E-02
RMM:  38    -0.118045818206E+04   -0.77667E-06   -0.75271E-06  1025   0.121E-03
   1 F= -.11877862E+04 E0= -.11877862E+04  d E =-.118779E+04  mag=    -0.0002
       N       E                     dE             d eps       ncg     rms          rms(c)
DAV:   1    -0.118045572919E+04    0.24521E-02   -0.31729E-01  1696   0.969E-01    0.204E-01
RMM:   2    -0.118045655982E+04   -0.83063E-03   -0.94929E-03  1717   0.153E-01    0.169E-01
RMM:   3    -0.118045661567E+04   -0.55847E-04   -0.20193E-03  1758   0.654E-02    0.124E-01
RMM:   4    -0.118045654771E+04    0.67957E-04   -0.64607E-04  1680   0.356E-02    0.604E-02
RMM:   5    -0.118045655447E+04   -0.67597E-05   -0.15074E-04  1994   0.169E-02    0.431E-02
RMM:   6    -0.118045655063E+04    0.38414E-05   -0.33451E-05  1562   0.779E-03    0.186E-02
RMM:   7    -0.118045655134E+04   -0.70514E-06   -0.11371E-05  1678   0.433E-03    0.124E-02
RMM:   8    -0.118045655178E+04   -0.44719E-06   -0.91260E-06  1551   0.365E-03
   2 F= -.11877858E+04 E0= -.11877858E+04  d E =0.353941E-03  mag=     0.0000
       N       E                     dE             d eps       ncg     rms          rms(c)
DAV:   1    -0.118045802622E+04   -0.14749E-02   -0.99222E-02  1760   0.540E-01    0.979E-02
RMM:   2    -0.118045822965E+04   -0.20343E-03   -0.24377E-03  1688   0.826E-02    0.815E-02
RMM:   3    -0.118045823302E+04   -0.33676E-05   -0.48847E-04  1660   0.347E-02    0.641E-02
RMM:   4    -0.118045821003E+04    0.22990E-04   -0.24271E-04  1594   0.218E-02    0.256E-02
RMM:   5    -0.118045821167E+04   -0.16426E-05   -0.48006E-05  1882   0.981E-03    0.218E-02
RMM:   6    -0.118045820695E+04    0.47180E-05   -0.20019E-05  1529   0.529E-03    0.948E-03
RMM:   7    -0.118045820726E+04   -0.30398E-06   -0.44829E-06  1272   0.274E-03
   3 F= -.11877867E+04 E0= -.11877867E+04  d E =-.588015E-03  mag=    -0.0000
       N       E                     dE             d eps       ncg     rms          rms(c)
DAV:   1    -0.118045812254E+04    0.84418E-04   -0.24959E-01  1856   0.805E-01    0.121E-01
RMM:   2    -0.118045853383E+04   -0.41129E-03   -0.54298E-03  1728   0.112E-01    0.911E-02
RMM:   3    -0.118045859059E+04   -0.56765E-04   -0.10277E-03  1652   0.466E-02    0.790E-02
RMM:   4    -0.118045857108E+04    0.19510E-04   -0.22828E-04  1766   0.215E-02    0.524E-02
RMM:   5    -0.118045858235E+04   -0.11263E-04   -0.13634E-04  1568   0.154E-02    0.254E-02
RMM:   6    -0.118045858081E+04    0.15398E-05   -0.24419E-05  1589   0.743E-03    0.165E-02
RMM:   7    -0.118045858219E+04   -0.13778E-05   -0.11626E-05  1494   0.421E-03    0.111E-02
RMM:   8    -0.118045858169E+04    0.49702E-06   -0.34323E-06  1223   0.242E-03
   4 F= -.11877874E+04 E0= -.11877874E+04  d E =-.672972E-03  mag=     0.0000
       N       E                     dE             d eps       ncg     rms          rms(c)
DAV:   1    -0.118045859774E+04   -0.15559E-04   -0.67459E-04  1760   0.420E-02    0.672E-03
RMM:   2    -0.118045859874E+04   -0.99338E-06   -0.13323E-05  1690   0.553E-03    0.513E-03
RMM:   3    -0.118045859881E+04   -0.76288E-07   -0.25591E-06  1092   0.235E-03
   5 F= -.11877874E+04 E0= -.11877874E+04  d E =-.674158E-03  mag=    -0.0000
       N       E                     dE             d eps       ncg     rms          rms(c)
DAV:   1    -0.118045860543E+04   -0.66878E-05   -0.18249E-01  1664   0.649E-01    0.941E-02
RMM:   2    -0.118045883725E+04   -0.23183E-03   -0.29655E-03  1632   0.820E-02    0.765E-02
RMM:   3    -0.118045885153E+04   -0.14281E-04   -0.50533E-04  1614   0.345E-02    0.622E-02
RMM:   4    -0.118045883890E+04    0.12634E-04   -0.17293E-04  1650   0.190E-02    0.315E-02
RMM:   5    -0.118045884823E+04   -0.93266E-05   -0.55822E-05  1629   0.103E-02    0.223E-02
RMM:   6    -0.118045884830E+04   -0.73662E-07   -0.20473E-05  1525   0.565E-03    0.119E-02
RMM:   7    -0.118045884918E+04   -0.88236E-06   -0.43337E-06  1236   0.295E-03
   6 F= -.11877879E+04 E0= -.11877879E+04  d E =-.443076E-03  mag=     0.0000
       N       E                     dE             d eps       ncg     rms          rms(c)
DAV:   1    -0.118045886296E+04   -0.14658E-04   -0.76332E-04  1696   0.423E-02    0.702E-03
RMM:   2    -0.118045886399E+04   -0.10303E-05   -0.12849E-05  1616   0.548E-03    0.577E-03
RMM:   3    -0.118045886382E+04    0.16420E-06   -0.20497E-06  1074   0.228E-03
   7 F= -.11877879E+04 E0= -.11877879E+04  d E =-.445140E-03  mag=    -0.0000
       N       E                     dE             d eps       ncg     rms          rms(c)
DAV:   1    -0.118045886667E+04   -0.26773E-05   -0.19318E-01  1600   0.619E-01    0.907E-02
RMM:   2    -0.118045913019E+04   -0.26352E-03   -0.32834E-03  1708   0.808E-02    0.738E-02
RMM:   3    -0.118045914991E+04   -0.19716E-04   -0.52872E-04  1618   0.335E-02    0.579E-02
RMM:   4    -0.118045914891E+04    0.10000E-05   -0.17678E-04  1618   0.186E-02    0.239E-02
RMM:   5    -0.118045915693E+04   -0.80205E-05   -0.39805E-05  1661   0.873E-03    0.167E-02
RMM:   6    -0.118045915752E+04   -0.59555E-06   -0.14642E-05  1508   0.472E-03    0.774E-03
RMM:   7    -0.118045915826E+04   -0.74017E-06   -0.27821E-06  1110   0.228E-03
   8 F= -.11877884E+04 E0= -.11877884E+04  d E =-.505806E-03  mag=     0.0000
