       N       E                     dE             d eps       ncg     rms          rms(c)
DAV:   1     0.481761532137E+04    0.48176E+04   -0.17265E+05  1872   0.905E+02
DAV:   2    -0.842921484145E+02   -0.49019E+04   -0.44674E+04  2520   0.207E+02
DAV:   3    -0.119054471191E+04   -0.11063E+04   -0.11002E+04  2088   0.108E+02
DAV:   4    -0.123587812001E+04   -0.45333E+02   -0.45116E+02  2052   0.288E+01
DAV:   5    -0.123705726745E+04   -0.11791E+01   -0.11771E+01  2376   0.429E+00    0.777E+01
RMM:   6    -0.122912582303E+04    0.79314E+01   -0.87820E+01  1726   0.886E+00    0.597E+01
RMM:   7    -0.120841447444E+04    0.20711E+02   -0.98999E+00  1778   0.350E+00    0.443E+01
RMM:   8    -0.119209845381E+04    0.16316E+02   -0.12126E+01  1618   0.379E+00    0.342E+01
RMM:   9    -0.116931237723E+04    0.22786E+02   -0.48506E+01  1594   0.754E+00    0.225E+01
RMM:  10    -0.116752310338E+04    0.17893E+01   -0.11059E+01  1749   0.391E+00    0.171E+01
RMM:  11    -0.116823677671E+04   -0.71367E+00   -0.66354E+00  1671   0.284E+00    0.129E+01
RMM:  12    -0.116774984469E+04    0.48693E+00   -0.10256E+00  1896   0.126E+00    0.613E+00
RMM:  13    -0.116721913945E+04    0.53071E+00   -0.17082E+00  1608   0.141E+00    0.270E+00
RMM:  14    -0.116720106342E+04    0.18076E-01   -0.18041E-01  1744   0.515E-01    0.188E+00
RMM:  15    -0.116719233452E+04    0.87289E-02   -0.41647E-02  1774   0.223E-01    0.130E+00
RMM:  16    -0.116718616121E+04    0.61733E-02   -0.16711E-02  1721   0.145E-01    0.933E-01
RMM:  17    -0.116718406987E+04    0.20913E-02   -0.82296E-03  1779   0.903E-02    0.378E-01
RMM:  18    -0.116718570101E+04   -0.16311E-02   -0.40394E-03  1668   0.731E-02    0.310E-01
RMM:  19    -0.116718517657E+04    0.52443E-03   -0.52088E-03  1644   0.772E-02    0.269E-01
RMM:  20    -0.116718489739E+04    0.27918E-03   -0.94569E-04  1639   0.368E-02    0.111E-01
RMM:  21    -0.116718478125E+04    0.11614E-03   -0.18321E-04  1140   0.178E-02    0.127E-01
RMM:  22    -0.116718494161E+04   -0.16036E-03   -0.12240E-04  1114   0.141E-02    0.371E-02
RMM:  23    -0.116718493660E+04    0.50055E-05   -0.34770E-05  1064   0.851E-03
   1 F= -.11742218E+04 E0= -.11742153E+04  d E =-.117422E+04  mag=     2.7830
       N       E                     dE             d eps       ncg     rms          rms(c)
DAV:   1    -0.116718372705E+04    0.12146E-02   -0.33930E-01  1728   0.978E-01    0.200E-01
RMM:   2    -0.116718470200E+04   -0.97494E-03   -0.12872E-02  1689   0.158E-01    0.181E-01
RMM:   3    -0.116718449703E+04    0.20496E-03   -0.79602E-04  1734   0.389E-02    0.165E-01
RMM:   4    -0.116718434776E+04    0.14927E-03   -0.93536E-05  1069   0.146E-02    0.148E-01
RMM:   5    -0.116718387992E+04    0.46784E-03   -0.22715E-03  1601   0.486E-02    0.593E-02
RMM:   6    -0.116718383080E+04    0.49121E-04   -0.12671E-04  1091   0.162E-02
   2 F= -.11742208E+04 E0= -.11742136E+04  d E =0.100879E-02  mag=     2.7519
       N       E                     dE             d eps       ncg     rms          rms(c)
DAV:   1    -0.116718566918E+04   -0.17893E-02   -0.12998E-01  1584   0.602E-01    0.155E-01
RMM:   2    -0.116718590147E+04   -0.23229E-03   -0.36533E-03  1676   0.919E-02    0.129E-01
RMM:   3    -0.116718579664E+04    0.10483E-03   -0.21144E-04  1170   0.219E-02    0.112E-01
RMM:   4    -0.116718571458E+04    0.82057E-04   -0.81343E-05  1046   0.137E-02
   3 F= -.11742227E+04 E0= -.11742161E+04  d E =-.814041E-03  mag=     2.7876
