       N       E                     dE             d eps       ncg     rms          rms(c)
DAV:   1     0.482648663064E+04    0.48265E+04   -0.17048E+05  1872   0.901E+02
DAV:   2    -0.615358504237E+02   -0.48880E+04   -0.44397E+04  2556   0.211E+02
DAV:   3    -0.117963488157E+04   -0.11181E+04   -0.11130E+04  2088   0.110E+02
DAV:   4    -0.123429693154E+04   -0.54662E+02   -0.54378E+02  2160   0.353E+01
DAV:   5    -0.123620578409E+04   -0.19089E+01   -0.18992E+01  2124   0.560E+00    0.654E+01
RMM:   6    -0.122241214408E+04    0.13794E+02   -0.79696E+00  1826   0.368E+00    0.532E+01
RMM:   7    -0.118156861603E+04    0.40844E+02   -0.86571E+01  1862   0.112E+01    0.318E+01
RMM:   8    -0.117495161152E+04    0.66170E+01   -0.94632E+00  1903   0.809E+00    0.243E+01
RMM:   9    -0.117145866338E+04    0.34929E+01   -0.31462E+01  1654   0.654E+00    0.133E+01
RMM:  10    -0.117205265428E+04   -0.59399E+00   -0.56031E+00  1729   0.727E+00    0.956E+00
RMM:  11    -0.117096292036E+04    0.10897E+01   -0.27003E+00  2056   0.193E+00    0.652E+00
RMM:  12    -0.117046378272E+04    0.49914E+00   -0.18966E+00  1867   0.172E+00    0.557E+00
RMM:  13    -0.117019458666E+04    0.26920E+00   -0.97257E-01  1957   0.133E+00    0.205E+00
RMM:  14    -0.117010979445E+04    0.84792E-01   -0.24407E-01  1822   0.808E-01    0.111E+00
RMM:  15    -0.117009421733E+04    0.15577E-01   -0.32083E-02  1870   0.487E-01    0.125E+00
RMM:  16    -0.117009645168E+04   -0.22343E-02   -0.72226E-03  1828   0.118E-01    0.105E+00
RMM:  17    -0.117009330753E+04    0.31441E-02   -0.53487E-03  1757   0.144E-01    0.869E-01
RMM:  18    -0.117008962018E+04    0.36874E-02   -0.35598E-03  1719   0.980E-02    0.719E-01
RMM:  19    -0.117008894917E+04    0.67100E-03   -0.20843E-03  1664   0.812E-02    0.509E-01
RMM:  20    -0.117008848342E+04    0.46576E-03   -0.91665E-04  1441   0.707E-02    0.332E-01
RMM:  21    -0.117008829715E+04    0.18627E-03   -0.54740E-04  1333   0.476E-02    0.242E-01
RMM:  22    -0.117008817994E+04    0.11721E-03   -0.23173E-04  1166   0.438E-02    0.234E-01
RMM:  23    -0.117008808509E+04    0.94844E-04   -0.18478E-04  1142   0.230E-02
   1 F= -.11771854E+04 E0= -.11771829E+04  d E =-.117719E+04  mag=    -0.9355
       N       E                     dE             d eps       ncg     rms          rms(c)
DAV:   1    -0.117008763122E+04    0.54872E-03   -0.25609E-01  1728   0.835E-01    0.211E-01
RMM:   2    -0.117008814972E+04   -0.51851E-03   -0.87900E-03  1908   0.142E-01    0.204E-01
RMM:   3    -0.117008798389E+04    0.16584E-03   -0.80325E-04  1459   0.830E-02    0.185E-01
RMM:   4    -0.117008755385E+04    0.43003E-03   -0.81732E-04  1579   0.454E-02    0.118E-01
RMM:   5    -0.117008756036E+04   -0.65107E-05   -0.11816E-03  1687   0.626E-02    0.595E-02
RMM:   6    -0.117008754825E+04    0.12118E-04   -0.17904E-04  1155   0.410E-02
   2 F= -.11771849E+04 E0= -.11771826E+04  d E =0.475290E-03  mag=    -0.9408
       N       E                     dE             d eps       ncg     rms          rms(c)
DAV:   1    -0.117008875073E+04   -0.11904E-02   -0.91098E-02  1764   0.496E-01    0.955E-02
RMM:   2    -0.117008880803E+04   -0.57304E-04   -0.20462E-03  1695   0.757E-02    0.931E-02
RMM:   3    -0.117008873450E+04    0.73531E-04   -0.24915E-04  1132   0.686E-02
   3 F= -.11771861E+04 E0= -.11771837E+04  d E =-.672962E-03  mag=    -0.9401
