       N       E                     dE             d eps       ncg     rms          rms(c)
DAV:   1     0.477552700751E+04    0.47755E+04   -0.17251E+05  1872   0.904E+02
DAV:   2    -0.641142310389E+02   -0.48396E+04   -0.44003E+04  2484   0.208E+02
DAV:   3    -0.117340918059E+04   -0.11093E+04   -0.11035E+04  2088   0.111E+02
DAV:   4    -0.122956069270E+04   -0.56152E+02   -0.55870E+02  2196   0.330E+01
DAV:   5    -0.123135523276E+04   -0.17945E+01   -0.17895E+01  2376   0.546E+00    0.604E+01
RMM:   6    -0.121787449848E+04    0.13481E+02   -0.67815E+00  1736   0.330E+00    0.498E+01
RMM:   7    -0.117390895680E+04    0.43966E+02   -0.77264E+01  1890   0.114E+01    0.283E+01
RMM:   8    -0.116856276728E+04    0.53462E+01   -0.12213E+01  1865   0.761E+00    0.201E+01
RMM:   9    -0.116568192698E+04    0.28808E+01   -0.30722E+01  1706   0.714E+00    0.963E+00
RMM:  10    -0.116609535715E+04   -0.41343E+00   -0.40202E+00  1737   0.808E+00    0.806E+00
RMM:  11    -0.116535861640E+04    0.73674E+00   -0.18391E+00  1930   0.183E+00    0.315E+00
RMM:  12    -0.116522145273E+04    0.13716E+00   -0.25137E-01  1876   0.110E+00    0.152E+00
RMM:  13    -0.116518542938E+04    0.36023E-01   -0.18372E-01  1873   0.652E-01    0.769E-01
RMM:  14    -0.116518357579E+04    0.18536E-02   -0.29385E-02  1932   0.364E-01    0.543E-01
RMM:  15    -0.116518360556E+04   -0.29771E-04   -0.95722E-03  1926   0.140E-01    0.431E-01
RMM:  16    -0.116518358723E+04    0.18330E-04   -0.12324E-03  1593   0.738E-02    0.317E-01
RMM:  17    -0.116518378084E+04   -0.19361E-03   -0.43575E-04  1310   0.567E-02    0.188E-01
RMM:  18    -0.116518387564E+04   -0.94796E-04   -0.30373E-04  1219   0.411E-02
   1 F= -.11721551E+04 E0= -.11721551E+04  d E =-.117216E+04  mag=    -0.0039
       N       E                     dE             d eps       ncg     rms          rms(c)
DAV:   1    -0.116518505914E+04   -0.12783E-02   -0.16856E-01  1800   0.704E-01    0.168E-01
RMM:   2    -0.116518514838E+04   -0.89237E-04   -0.55946E-03  1803   0.113E-01    0.152E-01
RMM:   3    -0.116518457504E+04    0.57334E-03   -0.84953E-04  1516   0.888E-02    0.115E-01
RMM:   4    -0.116518403903E+04    0.53601E-03   -0.22987E-03  1684   0.657E-02    0.388E-02
RMM:   5    -0.116518407054E+04   -0.31508E-04   -0.34136E-04  1302   0.792E-02
   2 F= -.11721554E+04 E0= -.11721554E+04  d E =-.353579E-03  mag=     0.0001
       N       E                     dE             d eps       ncg     rms          rms(c)
DAV:   1    -0.116518448852E+04   -0.44949E-03   -0.22201E-02  1764   0.253E-01    0.600E-02
RMM:   2    -0.116518446616E+04    0.22356E-04   -0.55802E-04  1277   0.399E-02
   3 F= -.11721558E+04 E0= -.11721558E+04  d E =-.691121E-03  mag=     0.0000
