       N       E                     dE             d eps       ncg     rms          rms(c)
DAV:   1     0.498843631758E+04    0.49884E+04   -0.17125E+05  1800   0.911E+02
DAV:   2    -0.356167257973E+02   -0.50241E+04   -0.45889E+04  2520   0.211E+02
DAV:   3    -0.118614071810E+04   -0.11505E+04   -0.11454E+04  2160   0.110E+02
DAV:   4    -0.123420543578E+04   -0.48065E+02   -0.47783E+02  2016   0.292E+01
DAV:   5    -0.123556412074E+04   -0.13587E+01   -0.13560E+01  2412   0.444E+00    0.759E+01
RMM:   6    -0.122163236211E+04    0.13932E+02   -0.85478E+00  1584   0.313E+00    0.642E+01
RMM:   7    -0.118130211455E+04    0.40330E+02   -0.73851E+01  1584   0.968E+00    0.411E+01
RMM:   8    -0.117822307724E+04    0.30790E+01   -0.81205E+00  1655   0.237E+00    0.383E+01
RMM:   9    -0.118976952633E+04   -0.11546E+02   -0.90223E+01  1588   0.877E+00    0.347E+01
RMM:  10    -0.118817875505E+04    0.15908E+01   -0.31169E+00  1810   0.176E+00    0.339E+01
RMM:  11    -0.118473511450E+04    0.34436E+01   -0.36035E-01  1706   0.547E-01    0.255E+01
RMM:  12    -0.118235004355E+04    0.23851E+01   -0.84025E-01  1589   0.823E-01    0.208E+01
RMM:  13    -0.117682396848E+04    0.55261E+01   -0.30906E+00  1604   0.122E+00    0.145E+01
RMM:  14    -0.117386802940E+04    0.29559E+01   -0.19455E+00  1646   0.952E-01    0.100E+01
RMM:  15    -0.117214876398E+04    0.17193E+01   -0.73857E-01  1646   0.680E-01    0.807E+00
RMM:  16    -0.117061587903E+04    0.15329E+01   -0.62614E-01  1628   0.690E-01    0.542E+00
RMM:  17    -0.117006027936E+04    0.55560E+00   -0.23040E-01  1650   0.416E-01    0.439E+00
RMM:  18    -0.117005346187E+04    0.68175E-02   -0.16182E-02  1976   0.114E-01    0.433E+00
RMM:  19    -0.117003638342E+04    0.17078E-01   -0.22330E-03  1593   0.335E-02    0.429E+00
RMM:  20    -0.117006737496E+04   -0.30992E-01   -0.21812E-03  1625   0.417E-02    0.448E+00
RMM:  21    -0.116972483148E+04    0.34254E+00   -0.82876E-02  1598   0.202E-01    0.402E+00
RMM:  22    -0.116978689822E+04   -0.62067E-01   -0.38327E-02  1587   0.206E-01    0.377E+00
RMM:  23    -0.116992037888E+04   -0.13348E+00   -0.23030E-02  1584   0.147E-01    0.406E+00
RMM:  24    -0.116980062436E+04    0.11975E+00   -0.32296E-02  1586   0.192E-01    0.407E+00
RMM:  25    -0.116943384567E+04    0.36678E+00   -0.14710E+00  1592   0.113E+00    0.839E+00
RMM:  26    -0.116941161876E+04    0.22227E-01   -0.51013E-02  1793   0.214E-01    0.811E+00
RMM:  27    -0.116938319897E+04    0.28420E-01   -0.87189E-03  1607   0.858E-02    0.799E+00
RMM:  28    -0.116925464198E+04    0.12856E+00   -0.98405E-02  1591   0.323E-01    0.607E+00
RMM:  29    -0.116918793260E+04    0.66709E-01   -0.84101E-02  1601   0.316E-01    0.413E+00
RMM:  30    -0.116916164402E+04    0.26289E-01   -0.19452E-02  1641   0.151E-01    0.338E+00
RMM:  31    -0.116915184530E+04    0.97987E-02   -0.46658E-02  1608   0.153E-01    0.255E+00
RMM:  32    -0.116914896085E+04    0.28845E-02   -0.48815E-03  1714   0.627E-02    0.235E+00
RMM:  33    -0.116914845539E+04    0.50546E-03   -0.42736E-04  1232   0.228E-02    0.230E+00
RMM:  34    -0.116912559765E+04    0.22858E-01   -0.29917E-02  1584   0.188E-01    0.101E+00
RMM:  35    -0.116912536346E+04    0.23420E-03   -0.41926E-03  1609   0.734E-02    0.783E-01
RMM:  36    -0.116912477656E+04    0.58690E-03   -0.17826E-03  1593   0.455E-02    0.498E-01
RMM:  37    -0.116912516629E+04   -0.38973E-03   -0.25045E-03  1586   0.555E-02    0.511E-01
RMM:  38    -0.116912494161E+04    0.22468E-03   -0.10797E-03  1273   0.258E-02    0.510E-01
RMM:  39    -0.116912560702E+04   -0.66541E-03   -0.83326E-04  1111   0.200E-02    0.592E-01
RMM:  40    -0.116912504345E+04    0.56357E-03   -0.12458E-03  1586   0.379E-02    0.237E-01
RMM:  41    -0.116912458080E+04    0.46265E-03   -0.66280E-04  1183   0.206E-02    0.811E-02
RMM:  42    -0.116912456245E+04    0.18351E-04   -0.88244E-05  1042   0.928E-03
   1 F= -.11762670E+04 E0= -.11762670E+04  d E =-.117627E+04  mag=     0.0028
       N       E                     dE             d eps       ncg     rms          rms(c)
DAV:   1    -0.116909926832E+04    0.25312E-01   -0.73574E+00  1656   0.198E+00    0.578E+00
RMM:   2    -0.116912104149E+04   -0.21773E-01   -0.25363E-01  1643   0.299E-01    0.560E+00
RMM:   3    -0.116911378768E+04    0.72538E-02   -0.14938E-02  1730   0.842E-02    0.380E+00
RMM:   4    -0.116911884747E+04   -0.50598E-02   -0.42656E-02  1658   0.123E-01    0.740E-01
RMM:   5    -0.116911412616E+04    0.47213E-02   -0.10982E-02  1539   0.646E-02    0.253E-01
RMM:   6    -0.116911366085E+04    0.46531E-03   -0.44098E-04  1129   0.166E-02    0.140E-01
RMM:   7    -0.116911313578E+04    0.52508E-03   -0.15540E-03  1270   0.240E-02    0.591E-02
RMM:   8    -0.116911312107E+04    0.14709E-04   -0.10376E-04  1055   0.964E-03
   2 F= -.11762577E+04 E0= -.11762577E+04  d E =0.929885E-02  mag=    -0.0001
       N       E                     dE             d eps       ncg     rms          rms(c)
DAV:   1    -0.116912628517E+04   -0.13149E-01   -0.25081E+00  1692   0.121E+00    0.350E+00
RMM:   2    -0.116913465833E+04   -0.83732E-02   -0.99222E-02  1626   0.177E-01    0.334E+00
RMM:   3    -0.116913170403E+04    0.29543E-02   -0.10147E-02  1668   0.654E-02    0.177E+00
RMM:   4    -0.116913353511E+04   -0.18311E-02   -0.10128E-02  1656   0.595E-02    0.437E-01
RMM:   5    -0.116913187544E+04    0.16597E-02   -0.29350E-03  1446   0.374E-02    0.121E-01
RMM:   6    -0.116913164790E+04    0.22755E-03   -0.50988E-04  1141   0.161E-02    0.494E-02
RMM:   7    -0.116913160279E+04    0.45103E-04   -0.15915E-04  1065   0.105E-02
   3 F= -.11762749E+04 E0= -.11762749E+04  d E =-.793956E-02  mag=     0.0000
       N       E                     dE             d eps       ncg     rms          rms(c)
DAV:   1    -0.116913091424E+04    0.73366E-03   -0.28888E-01  1620   0.854E-01    0.395E-01
RMM:   2    -0.116913127372E+04   -0.35948E-03   -0.70760E-03  1588   0.120E-01    0.368E-01
RMM:   3    -0.116913071114E+04    0.56258E-03   -0.76791E-04  1594   0.345E-02    0.273E-01
RMM:   4    -0.116913080421E+04   -0.93069E-04   -0.33028E-03  1584   0.631E-02    0.749E-02
RMM:   5    -0.116913056483E+04    0.23937E-03   -0.13833E-04  1030   0.145E-02    0.527E-02
RMM:   6    -0.116913052452E+04    0.40311E-04   -0.20179E-04  1048   0.160E-02
   4 F= -.11762743E+04 E0= -.11762743E+04  d E =0.573168E-03  mag=     0.0000
       N       E                     dE             d eps       ncg     rms          rms(c)
DAV:   1    -0.116913211669E+04   -0.15519E-02   -0.10436E-01  1728   0.514E-01    0.241E-01
RMM:   2    -0.116913222401E+04   -0.10732E-03   -0.25704E-03  1586   0.717E-02    0.222E-01
RMM:   3    -0.116913195651E+04    0.26750E-03   -0.33554E-04  1222   0.233E-02    0.151E-01
RMM:   4    -0.116913197802E+04   -0.21515E-04   -0.10987E-03  1582   0.373E-02    0.427E-02
RMM:   5    -0.116913190657E+04    0.71452E-04   -0.39016E-05   984   0.836E-03
   5 F= -.11762754E+04 E0= -.11762754E+04  d E =-.503070E-03  mag=     0.0000
