       N       E                     dE             d eps       ncg     rms          rms(c)
DAV:   1     0.497428109092E+04    0.49743E+04   -0.17528E+05  1872   0.923E+02
DAV:   2    -0.475740838803E+02   -0.50219E+04   -0.46040E+04  2592   0.210E+02
DAV:   3    -0.120002314402E+04   -0.11524E+04   -0.11472E+04  2052   0.111E+02
DAV:   4    -0.124772745514E+04   -0.47704E+02   -0.47460E+02  2016   0.304E+01
DAV:   5    -0.124905389502E+04   -0.13264E+01   -0.13239E+01  2412   0.461E+00    0.642E+01
RMM:   6    -0.123480158630E+04    0.14252E+02   -0.84711E+00  1640   0.338E+00    0.522E+01
RMM:   7    -0.119353134308E+04    0.41270E+02   -0.84774E+01  1653   0.106E+01    0.300E+01
RMM:   8    -0.118868735422E+04    0.48440E+01   -0.70470E+00  1706   0.359E+00    0.248E+01
RMM:   9    -0.118344835091E+04    0.52390E+01   -0.40542E+01  1606   0.732E+00    0.127E+01
RMM:  10    -0.118358061556E+04   -0.13226E+00   -0.34694E+00  1651   0.274E+00    0.970E+00
RMM:  11    -0.118249914631E+04    0.10815E+01   -0.60180E+00  1743   0.261E+00    0.672E+00
RMM:  12    -0.118184501683E+04    0.65413E+00   -0.43248E-01  1762   0.863E-01    0.304E+00
RMM:  13    -0.118172474930E+04    0.12027E+00   -0.28799E-01  1625   0.612E-01    0.135E+00
RMM:  14    -0.118172013254E+04    0.46168E-02   -0.59181E-02  1634   0.347E-01    0.695E-01
RMM:  15    -0.118172237637E+04   -0.22438E-02   -0.13790E-02  1899   0.148E-01    0.452E-01
RMM:  16    -0.118172135866E+04    0.10177E-02   -0.25576E-03  1784   0.620E-02    0.364E-01
RMM:  17    -0.118172170496E+04   -0.34631E-03   -0.10645E-03  1642   0.425E-02    0.250E-01
RMM:  18    -0.118172181937E+04   -0.11441E-03   -0.62161E-04  1429   0.331E-02    0.649E-02
RMM:  19    -0.118172183247E+04   -0.13096E-04   -0.14276E-04  1075   0.187E-02
   1 F= -.11888607E+04 E0= -.11888607E+04  d E =-.118886E+04  mag=     0.0010
       N       E                     dE             d eps       ncg     rms          rms(c)
DAV:   1    -0.118171117199E+04    0.10647E-01   -0.16384E+00  1800   0.210E+00    0.419E-01
RMM:   2    -0.118172006429E+04   -0.88923E-02   -0.10314E-01  1760   0.364E-01    0.430E-01
RMM:   3    -0.118171938444E+04    0.67985E-03   -0.54154E-03  1623   0.107E-01    0.498E-01
RMM:   4    -0.118171936969E+04    0.14753E-04   -0.94498E-04  1313   0.316E-02
   2 F= -.11888593E+04 E0= -.11888593E+04  d E =0.141910E-02  mag=     0.0004
       N       E                     dE             d eps       ncg     rms          rms(c)
DAV:   1    -0.118171950882E+04   -0.12439E-03   -0.58806E-01  1728   0.126E+00    0.434E-01
RMM:   2    -0.118172342767E+04   -0.39188E-02   -0.34768E-02  1705   0.212E-01    0.306E-01
RMM:   3    -0.118172338632E+04    0.41351E-04   -0.23281E-03  1439   0.705E-02    0.123E-01
RMM:   4    -0.118172342840E+04   -0.42085E-04   -0.42210E-04  1166   0.232E-02
   3 F= -.11888627E+04 E0= -.11888627E+04  d E =-.201181E-02  mag=    -0.0001
       N       E                     dE             d eps       ncg     rms          rms(c)
DAV:   1    -0.118172122607E+04    0.21602E-02   -0.89043E-01  1728   0.148E+00    0.300E-01
RMM:   2    -0.118172376998E+04   -0.25439E-02   -0.35186E-02  1693   0.233E-01    0.317E-01
RMM:   3    -0.118172341077E+04    0.35921E-03   -0.17745E-03  1379   0.641E-02    0.351E-01
RMM:   4    -0.118172337045E+04    0.40320E-04   -0.32729E-04  1156   0.215E-02
   4 F= -.11888633E+04 E0= -.11888633E+04  d E =-.630756E-03  mag=    -0.0000
       N       E                     dE             d eps       ncg     rms          rms(c)
DAV:   1    -0.118172353232E+04   -0.12156E-03   -0.19430E-01  1800   0.695E-01    0.450E-01
RMM:   2    -0.118172437279E+04   -0.84047E-03   -0.79475E-03  1676   0.108E-01    0.335E-01
RMM:   3    -0.118172438443E+04   -0.11637E-04   -0.97226E-04  1254   0.412E-02
   5 F= -.11888640E+04 E0= -.11888640E+04  d E =-.132091E-02  mag=     0.0000
