       N       E                     dE             d eps       ncg     rms          rms(c)
DAV:   1     0.520690643447E+04    0.52069E+04   -0.16825E+05  1656   0.994E+02
DAV:   2     0.123600433441E+03   -0.50833E+04   -0.46734E+04  2232   0.231E+02
DAV:   3    -0.115724806266E+04   -0.12808E+04   -0.12696E+04  1908   0.127E+02
DAV:   4    -0.122562376523E+04   -0.68376E+02   -0.67743E+02  1908   0.405E+01
DAV:   5    -0.122813874735E+04   -0.25150E+01   -0.25045E+01  2160   0.701E+00    0.596E+01
RMM:   6    -0.121529905766E+04    0.12840E+02   -0.65921E+00  1691   0.368E+00    0.485E+01
RMM:   7    -0.117306634269E+04    0.42233E+02   -0.58378E+01  1762   0.107E+01    0.282E+01
RMM:   8    -0.116235208006E+04    0.10714E+02   -0.53903E+01  1848   0.123E+01    0.123E+01
RMM:   9    -0.116385254010E+04   -0.15005E+01   -0.70300E+00  1811   0.695E+00    0.929E+00
RMM:  10    -0.116306096878E+04    0.79157E+00   -0.18443E+00  1820   0.337E+00    0.392E+00
RMM:  11    -0.116285872663E+04    0.20224E+00   -0.69324E-01  1831   0.164E+00    0.162E+00
RMM:  12    -0.116281289511E+04    0.45832E-01   -0.17054E-01  1872   0.816E-01    0.902E-01
RMM:  13    -0.116279851714E+04    0.14378E-01   -0.11031E-01  1933   0.494E-01    0.315E-01
RMM:  14    -0.116279775014E+04    0.76701E-03   -0.10016E-02  1895   0.144E-01    0.256E-01
RMM:  15    -0.116279768346E+04    0.66674E-04   -0.34207E-03  1805   0.861E-02    0.189E-01
RMM:  16    -0.116279843892E+04   -0.75545E-03   -0.31337E-03  1785   0.909E-02    0.116E-01
RMM:  17    -0.116279856710E+04   -0.12818E-03   -0.66343E-04  1175   0.559E-02    0.785E-02
RMM:  18    -0.116279861800E+04   -0.50899E-04   -0.76893E-04  1334   0.588E-02
   1 F= -.11704098E+04 E0= -.11704027E+04  d E =-.117041E+04  mag=    -0.7656
       N       E                     dE             d eps       ncg     rms          rms(c)
DAV:   1    -0.116279708772E+04    0.14794E-02   -0.43571E-01  1656   0.119E+00    0.165E-01
RMM:   2    -0.116279803345E+04   -0.94574E-03   -0.11980E-02  1823   0.187E-01    0.154E-01
RMM:   3    -0.116279795107E+04    0.82382E-04   -0.81619E-04  1272   0.891E-02
   2 F= -.11704098E+04 E0= -.11704028E+04  d E =0.668295E-04  mag=    -0.7662
       N       E                     dE             d eps       ncg     rms          rms(c)
DAV:   1    -0.116279914546E+04   -0.11120E-02   -0.13377E-01  1692   0.659E-01    0.777E-02
RMM:   2    -0.116279948180E+04   -0.33634E-03   -0.42030E-03  1680   0.113E-01    0.696E-02
RMM:   3    -0.116279945228E+04    0.29521E-04   -0.24657E-04   991   0.679E-02
   3 F= -.11704109E+04 E0= -.11704042E+04  d E =-.112451E-02  mag=    -0.7742
       N       E                     dE             d eps       ncg     rms          rms(c)
DAV:   1    -0.116279867938E+04    0.80242E-03   -0.23415E-01  1800   0.869E-01    0.138E-01
RMM:   2    -0.116279904257E+04   -0.36319E-03   -0.57338E-03  1697   0.138E-01    0.131E-01
RMM:   3    -0.116279892499E+04    0.11758E-03   -0.33247E-04  1072   0.688E-02    0.116E-01
RMM:   4    -0.116279857109E+04    0.35390E-03   -0.14372E-03  1699   0.660E-02    0.453E-02
RMM:   5    -0.116279857827E+04   -0.71809E-05   -0.17607E-04   939   0.464E-02
   4 F= -.11704101E+04 E0= -.11704035E+04  d E =0.851624E-03  mag=    -0.7852
       N       E                     dE             d eps       ncg     rms          rms(c)
DAV:   1    -0.116279981652E+04   -0.12454E-02   -0.10027E-01  1728   0.569E-01    0.739E-02
RMM:   2    -0.116279997302E+04   -0.15650E-03   -0.23314E-03  1635   0.881E-02    0.712E-02
RMM:   3    -0.116279995676E+04    0.16262E-04   -0.16147E-04   910   0.577E-02
   5 F= -.11704115E+04 E0= -.11704049E+04  d E =-.511792E-03  mag=    -0.7828
