       N       E                     dE             d eps       ncg     rms          rms(c)
DAV:   1     0.469859914071E+04    0.46986E+04   -0.17845E+05  1888   0.946E+02
DAV:   2    -0.737043880503E+02   -0.47723E+04   -0.43556E+04  2400   0.212E+02
DAV:   3    -0.119511386018E+04   -0.11214E+04   -0.11142E+04  1984   0.111E+02
DAV:   4    -0.124245774948E+04   -0.47344E+02   -0.47035E+02  1920   0.301E+01
DAV:   5    -0.124368456393E+04   -0.12268E+01   -0.12239E+01  2336   0.459E+00    0.791E+01
RMM:   6    -0.122371659169E+04    0.19968E+02   -0.33397E+01  1622   0.650E+00    0.584E+01
RMM:   7    -0.121227166826E+04    0.11445E+02   -0.92150E+00  1547   0.412E+00    0.473E+01
RMM:   8    -0.118926541527E+04    0.23006E+02   -0.28541E+01  1628   0.680E+00    0.320E+01
RMM:   9    -0.118001246662E+04    0.92529E+01   -0.11379E+01  1560   0.480E+00    0.253E+01
RMM:  10    -0.117252667391E+04    0.74858E+01   -0.18376E+01  1620   0.550E+00    0.162E+01
RMM:  11    -0.117353242117E+04   -0.10057E+01   -0.98049E+00  1543   0.421E+00    0.855E+00
RMM:  12    -0.117356977781E+04   -0.37357E-01   -0.10381E+00  1738   0.174E+00    0.658E+00
RMM:  13    -0.117315759575E+04    0.41218E+00   -0.45367E-01  1549   0.935E-01    0.380E+00
RMM:  14    -0.117306055636E+04    0.97039E-01   -0.68664E-01  1559   0.108E+00    0.280E+00
RMM:  15    -0.117302747865E+04    0.33078E-01   -0.77169E-02  1612   0.477E-01    0.103E+00
RMM:  16    -0.117302878591E+04   -0.13073E-02   -0.33937E-02  1556   0.250E-01    0.632E-01
RMM:  17    -0.117302932130E+04   -0.53539E-03   -0.67918E-03  1611   0.126E-01    0.469E-01
RMM:  18    -0.117303032838E+04   -0.10071E-02   -0.43640E-03  1596   0.894E-02    0.369E-01
RMM:  19    -0.117303029593E+04    0.32451E-04   -0.15262E-03  1859   0.534E-02    0.212E-01
RMM:  20    -0.117303034047E+04   -0.44538E-04   -0.12354E-03  1563   0.432E-02    0.131E-01
RMM:  21    -0.117303038314E+04   -0.42672E-04   -0.17354E-04  1576   0.215E-02    0.679E-02
RMM:  22    -0.117303039826E+04   -0.15126E-04   -0.14883E-04  1541   0.165E-02    0.517E-02
RMM:  23    -0.117303041919E+04   -0.20925E-04   -0.54732E-05  1543   0.106E-02    0.316E-02
RMM:  24    -0.117303040989E+04    0.92949E-05   -0.15530E-05  1544   0.564E-03    0.188E-02
RMM:  25    -0.117303041217E+04   -0.22785E-05   -0.62543E-06  1326   0.328E-03    0.122E-02
RMM:  26    -0.117303041283E+04   -0.66165E-06   -0.30388E-06  1151   0.242E-03
   1 F= -.11800948E+04 E0= -.11800929E+04  d E =-.118009E+04  mag=    -0.9547
       N       E                     dE             d eps       ncg     rms          rms(c)
DAV:   1    -0.117302706809E+04    0.33441E-02   -0.48773E-01  1632   0.122E+00    0.177E-01
RMM:   2    -0.117302830298E+04   -0.12349E-02   -0.14093E-02  1587   0.190E-01    0.176E-01
RMM:   3    -0.117302850848E+04   -0.20550E-03   -0.29907E-03  1804   0.802E-02    0.169E-01
RMM:   4    -0.117302831618E+04    0.19229E-03   -0.52800E-04  1787   0.337E-02    0.151E-01
RMM:   5    -0.117302810286E+04    0.21332E-03   -0.13612E-03  1562   0.424E-02    0.815E-02
RMM:   6    -0.117302820756E+04   -0.10470E-03   -0.66346E-04  1571   0.323E-02    0.747E-02
RMM:   7    -0.117302805164E+04    0.15593E-03   -0.14255E-04  1561   0.155E-02    0.441E-02
RMM:   8    -0.117302803252E+04    0.19115E-04   -0.25723E-04  1550   0.163E-02    0.191E-02
RMM:   9    -0.117302803150E+04    0.10173E-05   -0.24909E-05  1646   0.825E-03    0.134E-02
RMM:  10    -0.117302802932E+04    0.21814E-05   -0.40619E-05  1538   0.759E-03    0.790E-03
RMM:  11    -0.117302802905E+04    0.27119E-06   -0.45701E-06  1394   0.344E-03
   2 F= -.11800927E+04 E0= -.11800907E+04  d E =0.208907E-02  mag=    -0.9535
       N       E                     dE             d eps       ncg     rms          rms(c)
DAV:   1    -0.117303070406E+04   -0.26747E-02   -0.22282E-01  1664   0.823E-01    0.120E-01
RMM:   2    -0.117303113031E+04   -0.42625E-03   -0.51828E-03  1574   0.124E-01    0.118E-01
RMM:   3    -0.117303117642E+04   -0.46106E-04   -0.10066E-03  1721   0.504E-02    0.111E-01
RMM:   4    -0.117303105245E+04    0.12397E-03   -0.25339E-04  1653   0.237E-02    0.909E-02
RMM:   5    -0.117303099615E+04    0.56308E-04   -0.58656E-04  1571   0.287E-02    0.449E-02
RMM:   6    -0.117303101179E+04   -0.15648E-04   -0.14429E-04  1768   0.165E-02    0.415E-02
RMM:   7    -0.117303097172E+04    0.40071E-04   -0.34661E-05  1544   0.755E-03    0.260E-02
RMM:   8    -0.117303096590E+04    0.58256E-05   -0.62881E-05  1545   0.839E-03    0.108E-02
RMM:   9    -0.117303096599E+04   -0.92543E-07   -0.10649E-05  1674   0.471E-03    0.662E-03
RMM:  10    -0.117303096601E+04   -0.14785E-07   -0.11025E-05  1533   0.398E-03    0.455E-03
RMM:  11    -0.117303096543E+04    0.57682E-06   -0.14332E-06  1014   0.176E-03
   3 F= -.11800954E+04 E0= -.11800935E+04  d E =-.647370E-03  mag=    -0.9542
