       N       E                     dE             d eps       ncg     rms          rms(c)
DAV:   1     0.484966840964E+04    0.48497E+04   -0.16992E+05  1872   0.903E+02
DAV:   2    -0.575480912037E+02   -0.49072E+04   -0.44572E+04  2520   0.205E+02
DAV:   3    -0.118377445397E+04   -0.11262E+04   -0.11207E+04  2124   0.109E+02
DAV:   4    -0.122853020559E+04   -0.44756E+02   -0.44523E+02  2052   0.285E+01
DAV:   5    -0.122967536996E+04   -0.11452E+01   -0.11417E+01  2340   0.419E+00    0.678E+01
RMM:   6    -0.121417684503E+04    0.15499E+02   -0.32214E+01  1584   0.512E+00    0.540E+01
RMM:   7    -0.119920324246E+04    0.14974E+02   -0.73722E+00  1584   0.322E+00    0.438E+01
RMM:   8    -0.116818001082E+04    0.31023E+02   -0.55381E+01  1584   0.845E+00    0.252E+01
RMM:   9    -0.116496614948E+04    0.32139E+01   -0.41452E+01  1584   0.717E+00    0.103E+01
RMM:  10    -0.116504597298E+04   -0.79823E-01   -0.15735E+00  1624   0.162E+00    0.837E+00
RMM:  11    -0.116400255789E+04    0.10434E+01   -0.14950E+00  1584   0.109E+00    0.530E+00
RMM:  12    -0.116360896914E+04    0.39359E+00   -0.71394E-01  1584   0.938E-01    0.200E+00
RMM:  13    -0.116356132042E+04    0.47649E-01   -0.38016E-01  1584   0.691E-01    0.529E-01
RMM:  14    -0.116355792525E+04    0.33952E-02   -0.22832E-02  1598   0.180E-01    0.274E-01
RMM:  15    -0.116355789624E+04    0.29019E-04   -0.66143E-03  1584   0.951E-02    0.225E-01
RMM:  16    -0.116355842251E+04   -0.52628E-03   -0.17923E-03  1597   0.487E-02    0.192E-01
RMM:  17    -0.116355803340E+04    0.38911E-03   -0.15760E-03  1584   0.451E-02    0.886E-02
RMM:  18    -0.116355795707E+04    0.76334E-04   -0.30734E-04  1201   0.203E-02
   1 F= -.11707540E+04 E0= -.11707540E+04  d E =-.117075E+04  mag=    -0.0026
       N       E                     dE             d eps       ncg     rms          rms(c)
DAV:   1    -0.116354650778E+04    0.11526E-01   -0.22804E+00  1692   0.231E+00    0.785E-01
RMM:   2    -0.116355191520E+04   -0.54074E-02   -0.63262E-02  1585   0.340E-01    0.759E-01
RMM:   3    -0.116355140119E+04    0.51401E-03   -0.37785E-03  1703   0.720E-02    0.685E-01
RMM:   4    -0.116354974627E+04    0.16549E-02   -0.12839E-02  1584   0.129E-01    0.133E-01
RMM:   5    -0.116354967281E+04    0.73455E-04   -0.32661E-04  1214   0.257E-02
   2 F= -.11707469E+04 E0= -.11707469E+04  d E =0.714101E-02  mag=    -0.0014
       N       E                     dE             d eps       ncg     rms          rms(c)
DAV:   1    -0.116355918320E+04   -0.94369E-02   -0.95295E-01  1800   0.148E+00    0.491E-01
RMM:   2    -0.116356084424E+04   -0.16610E-02   -0.20712E-02  1588   0.199E-01    0.468E-01
RMM:   3    -0.116356052773E+04    0.31651E-03   -0.12239E-03  1506   0.421E-02    0.404E-01
RMM:   4    -0.116355988070E+04    0.64703E-03   -0.42126E-03  1584   0.758E-02    0.597E-02
RMM:   5    -0.116355985683E+04    0.23868E-04   -0.71613E-05  1038   0.133E-02
   3 F= -.11707563E+04 E0= -.11707563E+04  d E =-.229742E-02  mag=    -0.0012
