       N       E                     dE             d eps       ncg     rms          rms(c)
DAV:   1     0.481908335658E+04    0.48191E+04   -0.17240E+05  1872   0.905E+02
DAV:   2    -0.830409892044E+02   -0.49021E+04   -0.44571E+04  2520   0.205E+02
DAV:   3    -0.118960043417E+04   -0.11066E+04   -0.11015E+04  2088   0.107E+02
DAV:   4    -0.123460631912E+04   -0.45006E+02   -0.44799E+02  2016   0.285E+01
DAV:   5    -0.123577242037E+04   -0.11661E+01   -0.11638E+01  2304   0.424E+00    0.657E+01
RMM:   6    -0.121944420300E+04    0.16328E+02   -0.18658E+01  1584   0.432E+00    0.493E+01
RMM:   7    -0.120135368271E+04    0.18091E+02   -0.11463E+01  1584   0.389E+00    0.389E+01
RMM:   8    -0.117357162686E+04    0.27782E+02   -0.39814E+01  1584   0.716E+00    0.243E+01
RMM:   9    -0.116788764631E+04    0.56840E+01   -0.22538E+01  1584   0.538E+00    0.142E+01
RMM:  10    -0.116924920909E+04   -0.13616E+01   -0.79397E+00  1586   0.326E+00    0.810E+00
RMM:  11    -0.116870448949E+04    0.54472E+00   -0.77863E-01  1595   0.985E-01    0.531E+00
RMM:  12    -0.116835143314E+04    0.35306E+00   -0.64475E-01  1584   0.879E-01    0.264E+00
RMM:  13    -0.116824928429E+04    0.10215E+00   -0.14196E-01  1584   0.411E-01    0.138E+00
RMM:  14    -0.116823441157E+04    0.14873E-01   -0.91102E-02  1585   0.315E-01    0.466E-01
RMM:  15    -0.116823576337E+04   -0.13518E-02   -0.12044E-02  1606   0.133E-01    0.210E-01
RMM:  16    -0.116823504779E+04    0.71558E-03   -0.26393E-03  1584   0.564E-02    0.138E-01
RMM:  17    -0.116823533527E+04   -0.28749E-03   -0.64902E-04  1315   0.278E-02    0.746E-02
RMM:  18    -0.116823546989E+04   -0.13461E-03   -0.13109E-04  1080   0.155E-02    0.548E-02
RMM:  19    -0.116823551754E+04   -0.47651E-04   -0.67245E-05  1040   0.113E-02
   1 F= -.11753627E+04 E0= -.11753614E+04  d E =-.117536E+04  mag=    -0.9733
       N       E                     dE             d eps       ncg     rms          rms(c)
DAV:   1    -0.116823246985E+04    0.30000E-02   -0.88132E-01  1728   0.158E+00    0.348E-01
RMM:   2    -0.116823675652E+04   -0.42867E-02   -0.47766E-02  1584   0.249E-01    0.331E-01
RMM:   3    -0.116823618069E+04    0.57584E-03   -0.18154E-03  1445   0.430E-02    0.302E-01
RMM:   4    -0.116823542714E+04    0.75355E-03   -0.24557E-03  1584   0.552E-02    0.129E-01
RMM:   5    -0.116823548182E+04   -0.54686E-04   -0.55442E-04  1499   0.273E-02
   2 F= -.11753624E+04 E0= -.11753610E+04  d E =0.284537E-03  mag=    -0.9693
       N       E                     dE             d eps       ncg     rms          rms(c)
DAV:   1    -0.116823623167E+04   -0.80453E-03   -0.26512E-01  1800   0.867E-01    0.173E-01
RMM:   2    -0.116823734335E+04   -0.11117E-02   -0.13173E-02  1584   0.131E-01    0.165E-01
RMM:   3    -0.116823713434E+04    0.20901E-03   -0.43595E-04  1130   0.215E-02    0.151E-01
RMM:   4    -0.116823681701E+04    0.31733E-03   -0.88616E-04  1564   0.332E-02    0.673E-02
RMM:   5    -0.116823681566E+04    0.13524E-05   -0.15666E-04  1058   0.155E-02
   3 F= -.11753639E+04 E0= -.11753626E+04  d E =-.118501E-02  mag=    -0.9711
       N       E                     dE             d eps       ncg     rms          rms(c)
DAV:   1    -0.116823610191E+04    0.71510E-03   -0.58928E-01  1800   0.132E+00    0.254E-01
RMM:   2    -0.116823823155E+04   -0.21296E-02   -0.26063E-02  1584   0.195E-01    0.230E-01
RMM:   3    -0.116823769670E+04    0.53484E-03   -0.95058E-04  1294   0.344E-02    0.201E-01
RMM:   4    -0.116823709048E+04    0.60622E-03   -0.24042E-03  1584   0.544E-02    0.731E-02
RMM:   5    -0.116823711135E+04   -0.20863E-04   -0.14879E-04  1078   0.158E-02
   4 F= -.11753640E+04 E0= -.11753626E+04  d E =-.151077E-03  mag=    -0.9690
       N       E                     dE             d eps       ncg     rms          rms(c)
DAV:   1    -0.116823751899E+04   -0.42851E-03   -0.14083E-01  1800   0.645E-01    0.119E-01
RMM:   2    -0.116823797959E+04   -0.46060E-03   -0.60417E-03  1584   0.941E-02    0.109E-01
RMM:   3    -0.116823782148E+04    0.15810E-03   -0.20321E-04  1069   0.169E-02    0.943E-02
RMM:   4    -0.116823762810E+04    0.19339E-03   -0.68695E-04  1547   0.292E-02    0.353E-02
RMM:   5    -0.116823763234E+04   -0.42416E-05   -0.39384E-05   994   0.851E-03
   5 F= -.11753646E+04 E0= -.11753633E+04  d E =-.742770E-03  mag=    -0.9703
