       N       E                     dE             d eps       ncg     rms          rms(c)
DAV:   1     0.489245653259E+04    0.48925E+04   -0.17598E+05  1856   0.946E+02
DAV:   2    -0.198138152181E+02   -0.49123E+04   -0.44833E+04  2432   0.215E+02
DAV:   3    -0.118841264078E+04   -0.11686E+04   -0.11627E+04  2016   0.115E+02
DAV:   4    -0.123939709215E+04   -0.50984E+02   -0.50661E+02  1920   0.329E+01
DAV:   5    -0.124075382810E+04   -0.13567E+01   -0.13532E+01  2336   0.496E+00    0.756E+01
RMM:   6    -0.122456312476E+04    0.16191E+02   -0.10780E+01  1566   0.420E+00    0.554E+01
RMM:   7    -0.119814505768E+04    0.26418E+02   -0.50930E+01  1575   0.847E+00    0.363E+01
RMM:   8    -0.118974051052E+04    0.84045E+01   -0.85628E+00  1579   0.469E+00    0.321E+01
RMM:   9    -0.117814685682E+04    0.11594E+02   -0.21393E+01  1573   0.590E+00    0.252E+01
RMM:  10    -0.117687255328E+04    0.12743E+01   -0.16220E+01  1619   0.531E+00    0.217E+01
RMM:  11    -0.117608015808E+04    0.79240E+00   -0.81003E+00  1559   0.417E+00    0.976E+00
RMM:  12    -0.117692040023E+04   -0.84024E+00   -0.19786E+00  1716   0.239E+00    0.913E+00
RMM:  13    -0.117609497461E+04    0.82543E+00   -0.43633E-01  1559   0.107E+00    0.581E+00
RMM:  14    -0.117562039031E+04    0.47458E+00   -0.95096E-01  1550   0.123E+00    0.313E+00
RMM:  15    -0.117559461037E+04    0.25780E-01   -0.17646E-01  1623   0.650E-01    0.192E+00
RMM:  16    -0.117559853643E+04   -0.39261E-02   -0.68690E-02  1615   0.359E-01    0.130E+00
RMM:  17    -0.117559792848E+04    0.60795E-03   -0.22757E-02  1738   0.212E-01    0.107E+00
RMM:  18    -0.117560358127E+04   -0.56528E-02   -0.10472E-02  1610   0.144E-01    0.687E-01
RMM:  19    -0.117560333372E+04    0.24755E-03   -0.74212E-03  1564   0.120E-01    0.491E-01
RMM:  20    -0.117560320244E+04    0.13127E-03   -0.23302E-03  1580   0.767E-02    0.376E-01
RMM:  21    -0.117560281926E+04    0.38318E-03   -0.12108E-03  1565   0.508E-02    0.234E-01
RMM:  22    -0.117560219273E+04    0.62654E-03   -0.10497E-03  1657   0.389E-02    0.138E-01
RMM:  23    -0.117560212202E+04    0.70711E-04   -0.24979E-04  1779   0.201E-02    0.988E-02
RMM:  24    -0.117560207855E+04    0.43468E-04   -0.11433E-04  1651   0.135E-02    0.563E-02
RMM:  25    -0.117560206164E+04    0.16909E-04   -0.65708E-05  1592   0.926E-03    0.341E-02
RMM:  26    -0.117560205929E+04    0.23476E-05   -0.16783E-05  1578   0.560E-03    0.232E-02
RMM:  27    -0.117560205720E+04    0.20944E-05   -0.91473E-06  1441   0.447E-03    0.144E-02
RMM:  28    -0.117560205701E+04    0.18372E-06   -0.27828E-06  1107   0.253E-03
   1 F= -.11826477E+04 E0= -.11826477E+04  d E =-.118265E+04  mag=    -0.9996
       N       E                     dE             d eps       ncg     rms          rms(c)
DAV:   1    -0.117560013488E+04    0.19223E-02   -0.34338E-01  1696   0.101E+00    0.206E-01
RMM:   2    -0.117560086951E+04   -0.73463E-03   -0.97892E-03  1554   0.164E-01    0.323E-01
RMM:   3    -0.117560114588E+04   -0.27637E-03   -0.22795E-03  1856   0.721E-02    0.293E-01
RMM:   4    -0.117560115858E+04   -0.12697E-04   -0.30620E-04  1834   0.264E-02    0.314E-01
RMM:   5    -0.117560108657E+04    0.72013E-04   -0.93780E-05  1579   0.131E-02    0.261E-01
RMM:   6    -0.117560097055E+04    0.11601E-03   -0.10098E-03  1540   0.418E-02    0.173E-01
RMM:   7    -0.117560088854E+04    0.82014E-04   -0.18545E-04  1675   0.212E-02    0.185E-01
RMM:   8    -0.117560073932E+04    0.14922E-03   -0.76776E-05  1602   0.117E-02    0.165E-01
RMM:   9    -0.117560057489E+04    0.16443E-03   -0.27520E-04  1559   0.187E-02    0.117E-01
RMM:  10    -0.117560056784E+04    0.70526E-05   -0.65922E-05  1876   0.115E-02    0.108E-01
RMM:  11    -0.117560056142E+04    0.64172E-05   -0.95571E-06  1425   0.412E-03    0.997E-02
RMM:  12    -0.117560053705E+04    0.24367E-04   -0.33453E-05  1596   0.703E-03    0.661E-02
RMM:  13    -0.117560052779E+04    0.92601E-05   -0.55918E-05  1677   0.891E-03    0.250E-02
RMM:  14    -0.117560052776E+04    0.31760E-07   -0.91517E-06  1547   0.447E-03
   2 F= -.11826467E+04 E0= -.11826467E+04  d E =0.100812E-02  mag=    -1.0000
       N       E                     dE             d eps       ncg     rms          rms(c)
DAV:   1    -0.117560229530E+04   -0.17675E-02   -0.14167E-01  1760   0.644E-01    0.131E-01
RMM:   2    -0.117560252982E+04   -0.23452E-03   -0.34379E-03  1539   0.103E-01    0.202E-01
RMM:   3    -0.117560262945E+04   -0.99631E-04   -0.77880E-04  1845   0.441E-02    0.182E-01
RMM:   4    -0.117560263469E+04   -0.52400E-05   -0.11982E-04  1850   0.160E-02    0.193E-01
RMM:   5    -0.117560260984E+04    0.24847E-04   -0.26883E-05  1609   0.692E-03    0.177E-01
RMM:   6    -0.117560253081E+04    0.79029E-04   -0.38053E-04  1536   0.253E-02    0.108E-01
RMM:   7    -0.117560250400E+04    0.26816E-04   -0.91673E-05  1667   0.140E-02    0.115E-01
RMM:   8    -0.117560244579E+04    0.58206E-04   -0.27944E-05  1621   0.720E-03    0.107E-01
RMM:   9    -0.117560236934E+04    0.76450E-04   -0.10938E-04  1593   0.117E-02    0.907E-02
RMM:  10    -0.117560235554E+04    0.13797E-04   -0.38710E-05  1725   0.787E-03    0.765E-02
RMM:  11    -0.117560235422E+04    0.13222E-05   -0.42609E-06  1220   0.337E-03    0.735E-02
RMM:  12    -0.117560235208E+04    0.21413E-05   -0.11714E-06  1018   0.191E-03    0.697E-02
RMM:  13    -0.117560233735E+04    0.14733E-04   -0.40831E-05  1938   0.732E-03    0.376E-02
RMM:  14    -0.117560233684E+04    0.50716E-06   -0.12061E-05  1599   0.445E-03    0.221E-02
RMM:  15    -0.117560233813E+04   -0.12903E-05   -0.60610E-06  1405   0.378E-03    0.108E-02
RMM:  16    -0.117560233757E+04    0.56413E-06   -0.95419E-07  1020   0.194E-03
   3 F= -.11826481E+04 E0= -.11826481E+04  d E =-.467101E-03  mag=    -1.0000
