       N       E                     dE             d eps       ncg     rms          rms(c)
DAV:   1     0.473325584119E+04    0.47333E+04   -0.17835E+05  1888   0.948E+02
DAV:   2    -0.616483268450E+02   -0.47949E+04   -0.43717E+04  2400   0.215E+02
DAV:   3    -0.119527004894E+04   -0.11336E+04   -0.11278E+04  1984   0.113E+02
DAV:   4    -0.124477604648E+04   -0.49506E+02   -0.49179E+02  1952   0.330E+01
DAV:   5    -0.124620868341E+04   -0.14326E+01   -0.14263E+01  2304   0.513E+00    0.724E+01
RMM:   6    -0.122859106238E+04    0.17618E+02   -0.11451E+01  1580   0.436E+00    0.528E+01
RMM:   7    -0.120457247994E+04    0.24019E+02   -0.32602E+01  1562   0.702E+00    0.361E+01
RMM:   8    -0.118661883612E+04    0.17954E+02   -0.23023E+01  1551   0.662E+00    0.272E+01
RMM:   9    -0.117844903626E+04    0.81698E+01   -0.17935E+01  1562   0.592E+00    0.186E+01
RMM:  10    -0.117893555215E+04   -0.48652E+00   -0.12299E+01  1573   0.504E+00    0.105E+01
RMM:  11    -0.117962678942E+04   -0.69124E+00   -0.33246E+00  1744   0.283E+00    0.749E+00
RMM:  12    -0.117870308439E+04    0.92371E+00   -0.19154E+00  1539   0.184E+00    0.326E+00
RMM:  13    -0.117868241622E+04    0.20668E-01   -0.55301E-01  1582   0.111E+00    0.106E+00
RMM:  14    -0.117867761445E+04    0.48018E-02   -0.52933E-02  1606   0.467E-01    0.732E-01
RMM:  15    -0.117867232644E+04    0.52880E-02   -0.29926E-02  1567   0.250E-01    0.515E-01
RMM:  16    -0.117867089090E+04    0.14355E-02   -0.24718E-02  1609   0.220E-01    0.194E-01
RMM:  17    -0.117867070379E+04    0.18711E-03   -0.54204E-03  1669   0.119E-01    0.132E-01
RMM:  18    -0.117867072437E+04   -0.20577E-04   -0.10637E-03  1737   0.505E-02    0.113E-01
RMM:  19    -0.117867079496E+04   -0.70591E-04   -0.43029E-04  1579   0.299E-02    0.958E-02
RMM:  20    -0.117867089480E+04   -0.99843E-04   -0.22126E-04  1559   0.231E-02    0.701E-02
RMM:  21    -0.117867087065E+04    0.24151E-04   -0.92688E-05  1548   0.139E-02    0.414E-02
RMM:  22    -0.117867088090E+04   -0.10249E-04   -0.31072E-05  1662   0.898E-03    0.245E-02
RMM:  23    -0.117867088394E+04   -0.30427E-05   -0.88423E-06  1522   0.470E-03    0.170E-02
RMM:  24    -0.117867088254E+04    0.13991E-05   -0.78595E-06  1473   0.385E-03    0.105E-02
RMM:  25    -0.117867088333E+04   -0.78711E-06   -0.23097E-06  1096   0.260E-03
   1 F= -.11857415E+04 E0= -.11857415E+04  d E =-.118574E+04  mag=     2.0000
       N       E                     dE             d eps       ncg     rms          rms(c)
DAV:   1    -0.117866866605E+04    0.22165E-02   -0.34111E-01  1728   0.108E+00    0.170E-01
RMM:   2    -0.117866973125E+04   -0.10652E-02   -0.12509E-02  1568   0.179E-01    0.182E-01
RMM:   3    -0.117866991468E+04   -0.18344E-03   -0.24382E-03  1862   0.759E-02    0.151E-01
RMM:   4    -0.117866980163E+04    0.11305E-03   -0.38440E-04  1762   0.292E-02    0.135E-01
RMM:   5    -0.117866960023E+04    0.20140E-03   -0.65555E-04  1546   0.318E-02    0.677E-02
RMM:   6    -0.117866960391E+04   -0.36769E-05   -0.24507E-04  1662   0.210E-02    0.572E-02
RMM:   7    -0.117866958671E+04    0.17197E-04   -0.47138E-05  1597   0.107E-02    0.341E-02
RMM:   8    -0.117866959582E+04   -0.91040E-05   -0.38759E-05  1552   0.871E-03    0.206E-02
RMM:   9    -0.117866959267E+04    0.31476E-05   -0.10177E-05  1575   0.492E-03    0.168E-02
RMM:  10    -0.117866959087E+04    0.18005E-05   -0.11884E-05  1537   0.445E-03    0.122E-02
RMM:  11    -0.117866959095E+04   -0.83841E-07   -0.18267E-06  1028   0.255E-03
   2 F= -.11857408E+04 E0= -.11857408E+04  d E =0.746600E-03  mag=     2.0000
       N       E                     dE             d eps       ncg     rms          rms(c)
DAV:   1    -0.117867092021E+04   -0.13293E-02   -0.12851E-01  1728   0.657E-01    0.107E-01
RMM:   2    -0.117867124262E+04   -0.32241E-03   -0.40442E-03  1544   0.107E-01    0.109E-01
RMM:   3    -0.117867128770E+04   -0.45086E-04   -0.75891E-04  1843   0.448E-02    0.886E-02
RMM:   4    -0.117867123902E+04    0.48682E-04   -0.14155E-04  1681   0.178E-02    0.768E-02
RMM:   5    -0.117867117293E+04    0.66096E-04   -0.25248E-04  1545   0.202E-02    0.372E-02
RMM:   6    -0.117867117542E+04   -0.24988E-05   -0.69534E-05  1743   0.118E-02    0.323E-02
RMM:   7    -0.117867116983E+04    0.55945E-05   -0.16794E-05  1541   0.594E-03    0.193E-02
RMM:   8    -0.117867117228E+04   -0.24476E-05   -0.14445E-05  1538   0.546E-03    0.109E-02
RMM:   9    -0.117867117128E+04    0.99779E-06   -0.34185E-06  1159   0.297E-03
   3 F= -.11857420E+04 E0= -.11857420E+04  d E =-.499200E-03  mag=     2.0000
       N       E                     dE             d eps       ncg     rms          rms(c)
DAV:   1    -0.117867086462E+04    0.30766E-03   -0.21859E-01  1888   0.863E-01    0.123E-01
RMM:   2    -0.117867137509E+04   -0.51047E-03   -0.59890E-03  1536   0.128E-01    0.120E-01
RMM:   3    -0.117867145956E+04   -0.84469E-04   -0.10740E-03  1772   0.525E-02    0.970E-02
RMM:   4    -0.117867143100E+04    0.28564E-04   -0.20047E-04  1681   0.214E-02    0.855E-02
RMM:   5    -0.117867137754E+04    0.53457E-04   -0.18942E-04  1541   0.182E-02    0.455E-02
RMM:   6    -0.117867138118E+04   -0.36342E-05   -0.10844E-04  1568   0.140E-02    0.312E-02
RMM:   7    -0.117867138351E+04   -0.23356E-05   -0.17920E-05  1626   0.755E-03    0.173E-02
RMM:   8    -0.117867138675E+04   -0.32414E-05   -0.10608E-05  1537   0.452E-03    0.110E-02
RMM:   9    -0.117867138576E+04    0.98848E-06   -0.34457E-06  1232   0.286E-03
   4 F= -.11857425E+04 E0= -.11857425E+04  d E =-.453172E-03  mag=     2.0000
       N       E                     dE             d eps       ncg     rms          rms(c)
DAV:   1    -0.117867145901E+04   -0.72262E-04   -0.11861E-02  1696   0.201E-01    0.299E-02
RMM:   2    -0.117867148508E+04   -0.26065E-04   -0.32148E-04  1536   0.296E-02    0.268E-02
RMM:   3    -0.117867148883E+04   -0.37490E-05   -0.57677E-05  1761   0.121E-02    0.221E-02
RMM:   4    -0.117867148681E+04    0.20162E-05   -0.10694E-05  1442   0.498E-03    0.189E-02
RMM:   5    -0.117867148297E+04    0.38442E-05   -0.10062E-05  1520   0.429E-03    0.100E-02
RMM:   6    -0.117867148276E+04    0.21010E-06   -0.58918E-06  1486   0.336E-03
   5 F= -.11857425E+04 E0= -.11857425E+04  d E =-.494188E-03  mag=     2.0000
