       N       E                     dE             d eps       ncg     rms          rms(c)
DAV:   1     0.467201008274E+04    0.46720E+04   -0.18120E+05  1920   0.958E+02
DAV:   2    -0.706108076595E+02   -0.47426E+04   -0.43412E+04  2464   0.211E+02
DAV:   3    -0.120024564477E+04   -0.11296E+04   -0.11243E+04  1984   0.111E+02
DAV:   4    -0.124786854980E+04   -0.47623E+02   -0.47284E+02  1920   0.299E+01
DAV:   5    -0.124906335795E+04   -0.11948E+01   -0.11906E+01  2304   0.434E+00    0.714E+01
RMM:   6    -0.123340107558E+04    0.15662E+02   -0.96132E+00  1620   0.377E+00    0.548E+01
RMM:   7    -0.120252427004E+04    0.30877E+02   -0.46478E+01  1556   0.831E+00    0.331E+01
RMM:   8    -0.118797000318E+04    0.14554E+02   -0.23528E+01  1549   0.649E+00    0.242E+01
RMM:   9    -0.118288248900E+04    0.50875E+01   -0.22778E+01  1549   0.629E+00    0.133E+01
RMM:  10    -0.118461772626E+04   -0.17352E+01   -0.84905E+00  1575   0.403E+00    0.742E+00
RMM:  11    -0.118418087714E+04    0.43685E+00   -0.76157E-01  1617   0.142E+00    0.662E+00
RMM:  12    -0.118327676933E+04    0.90411E+00   -0.31286E+00  1537   0.215E+00    0.130E+00
RMM:  13    -0.118327375615E+04    0.30132E-02   -0.19568E-01  1540   0.756E-01    0.900E-01
RMM:  14    -0.118327352195E+04    0.23420E-03   -0.81296E-02  1551   0.405E-01    0.406E-01
RMM:  15    -0.118327430074E+04   -0.77879E-03   -0.17379E-02  1631   0.206E-01    0.283E-01
RMM:  16    -0.118327344792E+04    0.85282E-03   -0.67274E-03  1587   0.117E-01    0.155E-01
RMM:  17    -0.118327359162E+04   -0.14370E-03   -0.15716E-03  1709   0.608E-02    0.854E-02
RMM:  18    -0.118327351797E+04    0.73651E-04   -0.27042E-04  1612   0.261E-02    0.568E-02
RMM:  19    -0.118327355572E+04   -0.37751E-04   -0.26859E-04  1573   0.215E-02    0.278E-02
RMM:  20    -0.118327355808E+04   -0.23561E-05   -0.33442E-05  1583   0.100E-02    0.220E-02
RMM:  21    -0.118327355710E+04    0.97599E-06   -0.30012E-05  1530   0.726E-03    0.135E-02
RMM:  22    -0.118327355928E+04   -0.21768E-05   -0.13702E-05  1543   0.518E-03    0.796E-03
RMM:  23    -0.118327355716E+04    0.21183E-05   -0.34099E-06  1121   0.257E-03    0.443E-03
RMM:  24    -0.118327355596E+04    0.12028E-05   -0.22331E-06  1093   0.198E-03    0.306E-03
RMM:  25    -0.118327355582E+04    0.13319E-06   -0.34471E-07  1005   0.938E-04
   1 F= -.11904967E+04 E0= -.11904967E+04  d E =-.119050E+04  mag=     1.0000
       N       E                     dE             d eps       ncg     rms          rms(c)
DAV:   1    -0.118327229866E+04    0.12573E-02   -0.27086E-01  1600   0.858E-01    0.151E-01
RMM:   2    -0.118327279961E+04   -0.50095E-03   -0.66679E-03  1663   0.127E-01    0.137E-01
RMM:   3    -0.118327283839E+04   -0.38787E-04   -0.13772E-03  1918   0.545E-02    0.119E-01
RMM:   4    -0.118327280007E+04    0.38321E-04   -0.75628E-04  1589   0.370E-02    0.478E-02
RMM:   5    -0.118327282296E+04   -0.22882E-04   -0.17606E-04  1904   0.186E-02    0.349E-02
RMM:   6    -0.118327280007E+04    0.22891E-04   -0.63458E-05  1540   0.947E-03    0.149E-02
RMM:   7    -0.118327280353E+04   -0.34646E-05   -0.89417E-06  1665   0.450E-03    0.991E-03
RMM:   8    -0.118327280269E+04    0.83811E-06   -0.12933E-05  1539   0.429E-03    0.421E-03
RMM:   9    -0.118327280307E+04   -0.38009E-06   -0.41958E-06  1264   0.264E-03
   2 F= -.11904967E+04 E0= -.11904967E+04  d E =-.197420E-04  mag=     1.0000
       N       E                     dE             d eps       ncg     rms          rms(c)
DAV:   1    -0.118327359947E+04   -0.79678E-03   -0.66484E-02  1760   0.424E-01    0.753E-02
RMM:   2    -0.118327368976E+04   -0.90292E-04   -0.13160E-03  1632   0.607E-02    0.671E-02
RMM:   3    -0.118327368512E+04    0.46412E-05   -0.24486E-04  1705   0.253E-02    0.561E-02
RMM:   4    -0.118327367613E+04    0.89872E-05   -0.19153E-04  1581   0.187E-02    0.219E-02
RMM:   5    -0.118327367776E+04   -0.16322E-05   -0.33303E-05  1936   0.843E-03    0.158E-02
RMM:   6    -0.118327367367E+04    0.40957E-05   -0.11722E-05  1520   0.416E-03    0.693E-03
RMM:   7    -0.118327367410E+04   -0.43055E-06   -0.16973E-06  1060   0.201E-03
   3 F= -.11904972E+04 E0= -.11904972E+04  d E =-.508437E-03  mag=     1.0000
