       N       E                     dE             d eps       ncg     rms          rms(c)
DAV:   1     0.493048756663E+04    0.49305E+04   -0.17365E+05  1872   0.915E+02
DAV:   2    -0.343937692936E+02   -0.49649E+04   -0.45247E+04  2520   0.214E+02
DAV:   3    -0.118831665503E+04   -0.11539E+04   -0.11489E+04  2052   0.113E+02
DAV:   4    -0.124502912908E+04   -0.56712E+02   -0.56421E+02  2088   0.364E+01
DAV:   5    -0.124705875312E+04   -0.20296E+01   -0.20193E+01  2160   0.590E+00    0.677E+01
RMM:   6    -0.123206115305E+04    0.14998E+02   -0.91403E+00  1859   0.384E+00    0.557E+01
RMM:   7    -0.118988236650E+04    0.42179E+02   -0.10702E+02  1861   0.123E+01    0.348E+01
RMM:   8    -0.118528203076E+04    0.46003E+01   -0.75702E+00  1913   0.845E+00    0.270E+01
RMM:   9    -0.118342981111E+04    0.18522E+01   -0.80617E+00  1809   0.331E+00    0.228E+01
RMM:  10    -0.118115906706E+04    0.22707E+01   -0.20594E+01  1913   0.638E+00    0.124E+01
RMM:  11    -0.118053005032E+04    0.62902E+00   -0.28331E+00  1877   0.401E+00    0.746E+00
RMM:  12    -0.117976744582E+04    0.76260E+00   -0.21778E+00  1971   0.175E+00    0.518E+00
RMM:  13    -0.117934835210E+04    0.41909E+00   -0.13625E+00  1804   0.155E+00    0.251E+00
RMM:  14    -0.117928528792E+04    0.63064E-01   -0.21147E-01  1826   0.123E+00    0.157E+00
RMM:  15    -0.117928441896E+04    0.86896E-03   -0.54765E-02  1868   0.290E-01    0.134E+00
RMM:  16    -0.117927440378E+04    0.10015E-01   -0.14230E-02  1880   0.259E-01    0.111E+00
RMM:  17    -0.117927362239E+04    0.78139E-03   -0.41367E-03  1765   0.106E-01    0.987E-01
RMM:  18    -0.117927230978E+04    0.13126E-02   -0.18418E-03  1607   0.915E-02    0.879E-01
RMM:  19    -0.117927215423E+04    0.15556E-03   -0.69765E-04  1387   0.519E-02    0.731E-01
RMM:  20    -0.117927203556E+04    0.11866E-03   -0.59701E-04  1368   0.524E-02    0.557E-01
RMM:  21    -0.117927201904E+04    0.16525E-04   -0.35224E-04  1251   0.471E-02
   1 F= -.11864261E+04 E0= -.11864261E+04  d E =-.118643E+04  mag=    -0.0116
       N       E                     dE             d eps       ncg     rms          rms(c)
DAV:   1    -0.117927266666E+04   -0.63109E-03   -0.17782E-01  1728   0.672E-01    0.395E-01
RMM:   2    -0.117927275884E+04   -0.92181E-04   -0.50725E-03  1761   0.107E-01    0.343E-01
RMM:   3    -0.117927196485E+04    0.79399E-03   -0.15268E-03  1670   0.102E-01    0.239E-01
RMM:   4    -0.117927208400E+04   -0.11915E-03   -0.29074E-03  1686   0.732E-02    0.103E-01
RMM:   5    -0.117927190697E+04    0.17703E-03   -0.24222E-04  1170   0.599E-02    0.812E-02
RMM:   6    -0.117927187134E+04    0.35635E-04   -0.20124E-04  1080   0.185E-02
   2 F= -.11864261E+04 E0= -.11864261E+04  d E =0.193141E-04  mag=    -0.0013
       N       E                     dE             d eps       ncg     rms          rms(c)
DAV:   1    -0.117927264699E+04   -0.74001E-03   -0.45082E-02  1800   0.337E-01    0.890E-02
RMM:   2    -0.117927259124E+04    0.55749E-04   -0.95970E-04  1590   0.530E-02
   3 F= -.11864268E+04 E0= -.11864268E+04  d E =-.635269E-03  mag=    -0.0004
