       N       E                     dE             d eps       ncg     rms          rms(c)
DAV:   1     0.498041509659E+04    0.49804E+04   -0.17048E+05  1800   0.907E+02
DAV:   2    -0.323057497040E+02   -0.50127E+04   -0.45606E+04  2520   0.209E+02
DAV:   3    -0.118356706245E+04   -0.11513E+04   -0.11470E+04  2232   0.110E+02
DAV:   4    -0.122964479930E+04   -0.46078E+02   -0.45838E+02  2052   0.287E+01
DAV:   5    -0.123100164650E+04   -0.13568E+01   -0.13537E+01  2448   0.435E+00    0.701E+01
RMM:   6    -0.121805268330E+04    0.12949E+02   -0.71330E+00  1587   0.308E+00    0.596E+01
RMM:   7    -0.117274046700E+04    0.45312E+02   -0.77284E+01  1590   0.989E+00    0.364E+01
RMM:   8    -0.116687390153E+04    0.58666E+01   -0.56718E+01  1598   0.831E+00    0.226E+01
RMM:   9    -0.116702144893E+04   -0.14755E+00   -0.25964E+00  1714   0.193E+00    0.225E+01
RMM:  10    -0.116698288445E+04    0.38564E-01   -0.19005E-01  1908   0.497E-01    0.236E+01
RMM:  11    -0.116628003208E+04    0.70285E+00   -0.19833E+00  1627   0.124E+00    0.818E+00
RMM:  12    -0.116610366177E+04    0.17637E+00   -0.23335E-01  1610   0.436E-01    0.145E+01
RMM:  13    -0.116544724767E+04    0.65641E+00   -0.87974E-01  1607   0.997E-01    0.555E+00
RMM:  14    -0.116502519240E+04    0.42206E+00   -0.81751E-01  1585   0.974E-01    0.522E+00
RMM:  15    -0.116513468848E+04   -0.10950E+00   -0.61520E-02  1647   0.285E-01    0.379E+00
RMM:  16    -0.116508121257E+04    0.53476E-01   -0.43695E-02  1594   0.233E-01    0.393E+00
RMM:  17    -0.116481317043E+04    0.26804E+00   -0.67663E-02  1595   0.220E-01    0.450E+00
RMM:  18    -0.116484629374E+04   -0.33123E-01   -0.21114E-03  1465   0.474E-02    0.447E+00
RMM:  19    -0.116476422570E+04    0.82068E-01   -0.34383E-03  1342   0.481E-02    0.458E+00
RMM:  20    -0.116479654236E+04   -0.32317E-01   -0.36736E-04  1116   0.192E-02    0.455E+00
RMM:  21    -0.116479694447E+04   -0.40211E-03   -0.34082E-04  1124   0.191E-02    0.466E+00
RMM:  22    -0.116516906333E+04   -0.37212E+00   -0.11940E-01  1587   0.218E-01    0.328E+00
RMM:  23    -0.116528379954E+04   -0.11474E+00   -0.14311E-01  1541   0.164E-01    0.211E+00
RMM:  24    -0.116529357278E+04   -0.97732E-02   -0.15764E-02  1426   0.490E-02    0.199E+00
RMM:  25    -0.116529359061E+04   -0.17828E-04   -0.66634E-04  1147   0.141E-02
   1 F= -.11723566E+04 E0= -.11723387E+04  d E =-.117236E+04  mag=     0.0979
       N       E                     dE             d eps       ncg     rms          rms(c)
DAV:   1    -0.116533804756E+04   -0.44475E-01   -0.19797E+00  1728   0.209E+00    0.192E+00
RMM:   2    -0.116532178867E+04    0.16259E-01   -0.44323E-02  1600   0.258E-01    0.168E+00
RMM:   3    -0.116528125783E+04    0.40531E-01   -0.11971E-01  1595   0.347E-01    0.864E-01
RMM:   4    -0.116528086482E+04    0.39301E-03   -0.12591E-02  1619   0.118E-01    0.669E-01
RMM:   5    -0.116528049457E+04    0.37024E-03   -0.83387E-03  1584   0.899E-02    0.421E-01
RMM:   6    -0.116528092019E+04   -0.42562E-03   -0.74901E-04  1468   0.306E-02    0.346E-01
RMM:   7    -0.116527948480E+04    0.14354E-02   -0.45449E-03  1598   0.682E-02    0.170E-01
RMM:   8    -0.116527943383E+04    0.50967E-04   -0.40868E-04  1277   0.233E-02
   2 F= -.11723435E+04 E0= -.11723262E+04  d E =0.130507E-01  mag=     0.0094
       N       E                     dE             d eps       ncg     rms          rms(c)
DAV:   1    -0.116529730708E+04   -0.17822E-01   -0.47925E-01  1692   0.102E+00    0.581E-01
RMM:   2    -0.116529528919E+04    0.20179E-02   -0.84865E-03  1602   0.119E-01    0.504E-01
RMM:   3    -0.116528848260E+04    0.68066E-02   -0.12922E-02  1586   0.122E-01    0.187E-01
RMM:   4    -0.116528822535E+04    0.25725E-03   -0.35443E-03  1586   0.653E-02    0.102E-01
RMM:   5    -0.116528806116E+04    0.16419E-03   -0.35362E-04  1229   0.216E-02    0.572E-02
RMM:   6    -0.116528805959E+04    0.15735E-05   -0.45317E-05  1031   0.931E-03
   3 F= -.11723516E+04 E0= -.11723339E+04  d E =0.499190E-02  mag=     0.0120
       N       E                     dE             d eps       ncg     rms          rms(c)
DAV:   1    -0.116528984478E+04   -0.17836E-02   -0.15193E+00  1728   0.188E+00    0.113E+00
RMM:   2    -0.116529158023E+04   -0.17354E-02   -0.45455E-02  1628   0.281E-01    0.112E+00
RMM:   3    -0.116529015367E+04    0.14266E-02   -0.25637E-03  1696   0.603E-02    0.103E+00
RMM:   4    -0.116528796473E+04    0.21889E-02   -0.28533E-02  1584   0.175E-01    0.223E-01
RMM:   5    -0.116528692390E+04    0.10408E-02   -0.46798E-04  1318   0.296E-02    0.177E-01
RMM:   6    -0.116528632170E+04    0.60220E-03   -0.32760E-03  1592   0.493E-02    0.117E-01
RMM:   7    -0.116528630205E+04    0.19652E-04   -0.26410E-04  1188   0.178E-02
   4 F= -.11723490E+04 E0= -.11723312E+04  d E =0.258849E-02  mag=     0.0174
       N       E                     dE             d eps       ncg     rms          rms(c)
DAV:   1    -0.116529172853E+04   -0.54068E-02   -0.48120E-01  1728   0.106E+00    0.637E-01
RMM:   2    -0.116529230067E+04   -0.57214E-03   -0.13995E-02  1620   0.156E-01    0.629E-01
RMM:   3    -0.116529184264E+04    0.45802E-03   -0.74005E-04  1360   0.335E-02    0.576E-01
RMM:   4    -0.116529149286E+04    0.34978E-03   -0.92049E-03  1584   0.989E-02    0.123E-01
RMM:   5    -0.116529097471E+04    0.51815E-03   -0.19098E-04  1109   0.183E-02    0.928E-02
RMM:   6    -0.116529083492E+04    0.13979E-03   -0.95703E-04  1422   0.266E-02    0.648E-02
RMM:   7    -0.116529082476E+04    0.10161E-04   -0.70803E-05  1010   0.985E-03
   5 F= -.11723540E+04 E0= -.11723363E+04  d E =-.240357E-02  mag=     0.0238
       N       E                     dE             d eps       ncg     rms          rms(c)
DAV:   1    -0.116529728110E+04   -0.64462E-02   -0.58294E-01  1728   0.118E+00    0.609E-01
RMM:   2    -0.116529652488E+04    0.75622E-03   -0.13008E-02  1628   0.153E-01    0.598E-01
RMM:   3    -0.116529519540E+04    0.13295E-02   -0.82491E-04  1535   0.360E-02    0.547E-01
RMM:   4    -0.116529208838E+04    0.31070E-02   -0.16397E-02  1584   0.136E-01    0.134E-01
RMM:   5    -0.116529198451E+04    0.10387E-03   -0.40234E-04  1303   0.265E-02    0.102E-01
RMM:   6    -0.116529176978E+04    0.21473E-03   -0.98248E-04  1522   0.286E-02    0.702E-02
RMM:   7    -0.116529179897E+04   -0.29186E-04   -0.17452E-04  1068   0.145E-02
   6 F= -.11723543E+04 E0= -.11723370E+04  d E =-.277959E-03  mag=     0.0322
       N       E                     dE             d eps       ncg     rms          rms(c)
DAV:   1    -0.116529334387E+04   -0.15741E-02   -0.11343E-01  1728   0.524E-01    0.281E-01
RMM:   2    -0.116529319376E+04    0.15010E-03   -0.25198E-03  1636   0.668E-02    0.276E-01
RMM:   3    -0.116529293133E+04    0.26243E-03   -0.14266E-04  1048   0.159E-02    0.251E-01
RMM:   4    -0.116529243377E+04    0.49756E-03   -0.35348E-03  1584   0.631E-02    0.545E-02
RMM:   5    -0.116529236694E+04    0.66829E-04   -0.49724E-05  1020   0.107E-02
   7 F= -.11723551E+04 E0= -.11723377E+04  d E =-.115649E-02  mag=     0.0402
       N       E                     dE             d eps       ncg     rms          rms(c)
DAV:   1    -0.116529277052E+04   -0.33676E-03   -0.17340E-01  1800   0.637E-01    0.280E-01
RMM:   2    -0.116529297347E+04   -0.20295E-03   -0.40748E-03  1606   0.928E-02    0.277E-01
RMM:   3    -0.116529285270E+04    0.12077E-03   -0.20436E-04  1119   0.189E-02    0.253E-01
RMM:   4    -0.116529273014E+04    0.12256E-03   -0.30797E-03  1584   0.583E-02    0.848E-02
RMM:   5    -0.116529259130E+04    0.13884E-03   -0.59515E-05  1031   0.112E-02    0.599E-02
RMM:   6    -0.116529256182E+04    0.29481E-04   -0.49603E-04  1339   0.211E-02
   8 F= -.11723552E+04 E0= -.11723380E+04  d E =-.848317E-04  mag=     0.0487
       N       E                     dE             d eps       ncg     rms          rms(c)
DAV:   1    -0.116529280808E+04   -0.21678E-03   -0.31795E-02  1800   0.273E-01    0.105E-01
RMM:   2    -0.116529284859E+04   -0.40514E-04   -0.83856E-04  1407   0.425E-02
   9 F= -.11723555E+04 E0= -.11723382E+04  d E =-.417410E-03  mag=     0.0498
