       N       E                     dE             d eps       ncg     rms          rms(c)
DAV:   1     0.505157114761E+04    0.50516E+04   -0.17416E+05  1836   0.927E+02
DAV:   2    -0.182809524245E+02   -0.50699E+04   -0.46384E+04  2592   0.211E+02
DAV:   3    -0.119438666545E+04   -0.11761E+04   -0.11708E+04  2016   0.112E+02
DAV:   4    -0.124377179798E+04   -0.49385E+02   -0.49070E+02  2016   0.307E+01
DAV:   5    -0.124504063257E+04   -0.12688E+01   -0.12645E+01  2268   0.449E+00    0.683E+01
RMM:   6    -0.122880695245E+04    0.16234E+02   -0.31626E+01  1584   0.538E+00    0.566E+01
RMM:   7    -0.121395693062E+04    0.14850E+02   -0.70721E+00  1584   0.310E+00    0.449E+01
RMM:   8    -0.118761854053E+04    0.26338E+02   -0.33815E+01  1584   0.672E+00    0.280E+01
RMM:   9    -0.117762154932E+04    0.99970E+01   -0.17036E+01  1584   0.479E+00    0.203E+01
RMM:  10    -0.117811436138E+04   -0.49281E+00   -0.19723E+01  1584   0.503E+00    0.876E+00
RMM:  11    -0.117785623680E+04    0.25812E+00   -0.81660E-01  1619   0.116E+00    0.650E+00
RMM:  12    -0.117732876876E+04    0.52747E+00   -0.33670E+00  1584   0.195E+00    0.293E+00
RMM:  13    -0.117713985476E+04    0.18891E+00   -0.10564E-01  1601   0.398E-01    0.165E+00
RMM:  14    -0.117707692000E+04    0.62935E-01   -0.21653E-01  1584   0.385E-01    0.795E-01
RMM:  15    -0.117707396326E+04    0.29567E-02   -0.19773E-02  1584   0.154E-01    0.605E-01
RMM:  16    -0.117707110038E+04    0.28629E-02   -0.10177E-02  1585   0.113E-01    0.269E-01
RMM:  17    -0.117707005952E+04    0.10409E-02   -0.25345E-03  1580   0.529E-02    0.139E-01
RMM:  18    -0.117707021786E+04   -0.15834E-03   -0.10424E-03  1374   0.307E-02    0.746E-02
RMM:  19    -0.117707031171E+04   -0.93856E-04   -0.22107E-04  1070   0.183E-02
   1 F= -.11844584E+04 E0= -.11844584E+04  d E =-.118446E+04  mag=    -0.0055
       N       E                     dE             d eps       ncg     rms          rms(c)
DAV:   1    -0.117706545390E+04    0.47640E-02   -0.12444E+00  1656   0.171E+00    0.505E-01
RMM:   2    -0.117706785601E+04   -0.24021E-02   -0.30877E-02  1584   0.238E-01    0.485E-01
RMM:   3    -0.117706763008E+04    0.22592E-03   -0.17849E-03  1605   0.499E-02    0.445E-01
RMM:   4    -0.117706689512E+04    0.73496E-03   -0.39834E-03  1584   0.717E-02    0.148E-01
RMM:   5    -0.117706701943E+04   -0.12431E-03   -0.60282E-04  1535   0.293E-02    0.737E-02
RMM:   6    -0.117706686846E+04    0.15097E-03   -0.48224E-04  1377   0.217E-02    0.322E-02
RMM:   7    -0.117706687567E+04   -0.72109E-05   -0.24120E-05  1001   0.689E-03
   2 F= -.11844559E+04 E0= -.11844559E+04  d E =0.244286E-02  mag=    -0.0002
       N       E                     dE             d eps       ncg     rms          rms(c)
DAV:   1    -0.117707103624E+04   -0.41678E-02   -0.48830E-01  1656   0.107E+00    0.312E-01
RMM:   2    -0.117707182527E+04   -0.78903E-03   -0.10983E-02  1585   0.145E-01    0.301E-01
RMM:   3    -0.117707173639E+04    0.88874E-04   -0.54570E-04  1249   0.288E-02
   3 F= -.11844601E+04 E0= -.11844601E+04  d E =-.179467E-02  mag=     0.0001
       N       E                     dE             d eps       ncg     rms          rms(c)
DAV:   1    -0.117706992477E+04    0.19005E-02   -0.33662E-01  1692   0.947E-01    0.208E-01
RMM:   2    -0.117707040133E+04   -0.47656E-03   -0.85084E-03  1584   0.141E-01    0.197E-01
RMM:   3    -0.117707015957E+04    0.24175E-03   -0.39170E-04  1218   0.279E-02    0.178E-01
RMM:   4    -0.117706951032E+04    0.64925E-03   -0.32568E-03  1584   0.648E-02    0.557E-02
RMM:   5    -0.117706949175E+04    0.18567E-04   -0.89104E-05  1022   0.143E-02
   4 F= -.11844573E+04 E0= -.11844573E+04  d E =0.288417E-02  mag=     0.0000
       N       E                     dE             d eps       ncg     rms          rms(c)
DAV:   1    -0.117707205261E+04   -0.25423E-02   -0.20269E-01  1728   0.734E-01    0.133E-01
RMM:   2    -0.117707232864E+04   -0.27603E-03   -0.50183E-03  1584   0.108E-01    0.121E-01
RMM:   3    -0.117707218698E+04    0.14166E-03   -0.20692E-04  1108   0.210E-02    0.108E-01
RMM:   4    -0.117707184980E+04    0.33719E-03   -0.18394E-03  1584   0.487E-02    0.360E-02
RMM:   5    -0.117707183072E+04    0.19077E-04   -0.29202E-05   996   0.909E-03
   5 F= -.11844601E+04 E0= -.11844601E+04  d E =0.549897E-04  mag=     0.0000
