       N       E                     dE             d eps       ncg     rms          rms(c)
DAV:   1     0.484025710527E+04    0.48403E+04   -0.17218E+05  1872   0.905E+02
DAV:   2    -0.742505064820E+02   -0.49145E+04   -0.44640E+04  2520   0.207E+02
DAV:   3    -0.119048507951E+04   -0.11162E+04   -0.11114E+04  2124   0.108E+02
DAV:   4    -0.123521560656E+04   -0.44731E+02   -0.44531E+02  2052   0.286E+01
DAV:   5    -0.123637798324E+04   -0.11624E+01   -0.11603E+01  2376   0.427E+00    0.709E+01
RMM:   6    -0.121995882764E+04    0.16419E+02   -0.22687E+01  1616   0.477E+00    0.500E+01
RMM:   7    -0.120563088629E+04    0.14328E+02   -0.86115E+00  1585   0.338E+00    0.414E+01
RMM:   8    -0.117743939523E+04    0.28191E+02   -0.39194E+01  1587   0.718E+00    0.254E+01
RMM:   9    -0.116961469050E+04    0.78247E+01   -0.17979E+01  1584   0.486E+00    0.170E+01
RMM:  10    -0.117044369424E+04   -0.82900E+00   -0.14494E+01  1584   0.434E+00    0.825E+00
RMM:  11    -0.117000849980E+04    0.43519E+00   -0.57615E-01  1623   0.972E-01    0.520E+00
RMM:  12    -0.116973637496E+04    0.27212E+00   -0.65416E-01  1584   0.892E-01    0.282E+00
RMM:  13    -0.116958598108E+04    0.15039E+00   -0.31953E-01  1584   0.578E-01    0.942E-01
RMM:  14    -0.116957590344E+04    0.10078E-01   -0.92873E-02  1585   0.349E-01    0.490E-01
RMM:  15    -0.116957650950E+04   -0.60606E-03   -0.10895E-02  1602   0.129E-01    0.211E-01
RMM:  16    -0.116957670095E+04   -0.19145E-03   -0.42699E-03  1587   0.753E-02    0.151E-01
RMM:  17    -0.116957663858E+04    0.62369E-04   -0.52395E-04  1336   0.298E-02
   1 F= -.11765980E+04 E0= -.11765979E+04  d E =-.117660E+04  mag=     2.9918
       N       E                     dE             d eps       ncg     rms          rms(c)
DAV:   1    -0.116957551744E+04    0.11835E-02   -0.48136E-01  1764   0.123E+00    0.237E-01
RMM:   2    -0.116957728355E+04   -0.17661E-02   -0.23058E-02  1599   0.199E-01    0.225E-01
RMM:   3    -0.116957682470E+04    0.45885E-03   -0.14126E-03  1656   0.475E-02    0.211E-01
RMM:   4    -0.116957590021E+04    0.92449E-03   -0.11698E-03  1584   0.383E-02    0.135E-01
RMM:   5    -0.116957553739E+04    0.36282E-03   -0.18246E-03  1584   0.475E-02    0.647E-02
RMM:   6    -0.116957549614E+04    0.41254E-04   -0.12852E-04  1061   0.154E-02
   2 F= -.11765972E+04 E0= -.11765971E+04  d E =0.874930E-03  mag=     2.9982
       N       E                     dE             d eps       ncg     rms          rms(c)
DAV:   1    -0.116957775181E+04   -0.22144E-02   -0.16355E-01  1620   0.714E-01    0.133E-01
RMM:   2    -0.116957812045E+04   -0.36864E-03   -0.62687E-03  1589   0.108E-01    0.126E-01
RMM:   3    -0.116957793327E+04    0.18718E-03   -0.34734E-04  1190   0.243E-02    0.118E-01
RMM:   4    -0.116957758935E+04    0.34392E-03   -0.43896E-04  1412   0.245E-02    0.716E-02
RMM:   5    -0.116957745554E+04    0.13381E-03   -0.60376E-04  1542   0.279E-02    0.337E-02
RMM:   6    -0.116957745055E+04    0.49932E-05   -0.31477E-05  1004   0.839E-03
   3 F= -.11765990E+04 E0= -.11765989E+04  d E =-.921999E-03  mag=     2.9984
