       N       E                     dE             d eps       ncg     rms          rms(c)
DAV:   1     0.490353800992E+04    0.49035E+04   -0.16878E+05  1800   0.903E+02
DAV:   2    -0.623240404904E+02   -0.49659E+04   -0.45287E+04  2556   0.208E+02
DAV:   3    -0.118008565690E+04   -0.11178E+04   -0.11126E+04  2160   0.109E+02
DAV:   4    -0.122439231269E+04   -0.44307E+02   -0.44102E+02  2052   0.285E+01
DAV:   5    -0.122553586849E+04   -0.11436E+01   -0.11417E+01  2376   0.422E+00    0.628E+01
RMM:   6    -0.120899228208E+04    0.16544E+02   -0.16832E+01  1584   0.429E+00    0.507E+01
RMM:   7    -0.119068133429E+04    0.18311E+02   -0.12769E+01  1584   0.414E+00    0.386E+01
RMM:   8    -0.116385336107E+04    0.26828E+02   -0.41096E+01  1584   0.731E+00    0.238E+01
RMM:   9    -0.116098335814E+04    0.28700E+01   -0.40637E+01  1584   0.718E+00    0.896E+00
RMM:  10    -0.116101266974E+04   -0.29312E-01   -0.12355E+00  1622   0.146E+00    0.763E+00
RMM:  11    -0.116019707740E+04    0.81559E+00   -0.38186E+00  1584   0.209E+00    0.236E+00
RMM:  12    -0.116007045101E+04    0.12663E+00   -0.28193E-01  1584   0.567E-01    0.142E+00
RMM:  13    -0.116002720671E+04    0.43244E-01   -0.81065E-02  1584   0.317E-01    0.676E-01
RMM:  14    -0.116002527714E+04    0.19296E-02   -0.58164E-02  1584   0.271E-01    0.255E-01
RMM:  15    -0.116002346705E+04    0.18101E-02   -0.45386E-03  1623   0.798E-02    0.172E-01
RMM:  16    -0.116002377902E+04   -0.31197E-03   -0.57756E-04  1331   0.279E-02    0.154E-01
RMM:  17    -0.116002364828E+04    0.13074E-03   -0.90408E-04  1544   0.348E-02    0.959E-02
RMM:  18    -0.116002360208E+04    0.46199E-04   -0.17326E-04  1087   0.164E-02
   1 F= -.11671321E+04 E0= -.11671321E+04  d E =-.116713E+04  mag=    -0.0022
       N       E                     dE             d eps       ncg     rms          rms(c)
DAV:   1    -0.116002432084E+04   -0.67256E-03   -0.13288E+00  1728   0.161E+00    0.366E-01
RMM:   2    -0.116002570867E+04   -0.13878E-02   -0.25980E-02  1584   0.219E-01    0.344E-01
RMM:   3    -0.116002533199E+04    0.37668E-03   -0.18319E-03  1593   0.485E-02    0.327E-01
RMM:   4    -0.116002396207E+04    0.13699E-02   -0.28557E-03  1584   0.602E-02    0.158E-01
RMM:   5    -0.116002396061E+04    0.14558E-05   -0.14114E-03  1584   0.423E-02    0.687E-02
RMM:   6    -0.116002388573E+04    0.74885E-04   -0.27382E-04  1184   0.178E-02
   2 F= -.11671329E+04 E0= -.11671329E+04  d E =-.772115E-03  mag=    -0.0000
       N       E                     dE             d eps       ncg     rms          rms(c)
DAV:   1    -0.116002611968E+04   -0.21591E-02   -0.28152E-01  1692   0.737E-01    0.168E-01
RMM:   2    -0.116002628472E+04   -0.16504E-03   -0.47877E-03  1584   0.980E-02    0.158E-01
RMM:   3    -0.116002615311E+04    0.13161E-03   -0.28650E-04  1148   0.210E-02    0.148E-01
RMM:   4    -0.116002578984E+04    0.36327E-03   -0.83854E-04  1566   0.330E-02    0.699E-02
RMM:   5    -0.116002578195E+04    0.78916E-05   -0.24977E-04  1150   0.189E-02
   3 F= -.11671346E+04 E0= -.11671346E+04  d E =-.244517E-02  mag=    -0.0000
       N       E                     dE             d eps       ncg     rms          rms(c)
DAV:   1    -0.116002743810E+04   -0.16483E-02   -0.90887E-01  1692   0.134E+00    0.266E-01
RMM:   2    -0.116002808993E+04   -0.65184E-03   -0.13697E-02  1584   0.178E-01    0.241E-01
RMM:   3    -0.116002758919E+04    0.50075E-03   -0.82550E-04  1457   0.381E-02    0.212E-01
RMM:   4    -0.116002670122E+04    0.88797E-03   -0.33200E-03  1584   0.623E-02    0.832E-02
RMM:   5    -0.116002669001E+04    0.11217E-04   -0.20524E-04  1118   0.184E-02
   4 F= -.11671355E+04 E0= -.11671355E+04  d E =-.935770E-03  mag=    -0.0000
       N       E                     dE             d eps       ncg     rms          rms(c)
DAV:   1    -0.116002745436E+04   -0.75314E-03   -0.13646E-01  1728   0.520E-01    0.949E-02
RMM:   2    -0.116002750941E+04   -0.55050E-04   -0.18472E-03  1584   0.658E-02    0.883E-02
RMM:   3    -0.116002741672E+04    0.92691E-04   -0.99513E-05  1013   0.146E-02
   5 F= -.11671362E+04 E0= -.11671362E+04  d E =-.165293E-02  mag=     0.0000
       N       E                     dE             d eps       ncg     rms          rms(c)
DAV:   1    -0.116002668355E+04    0.82586E-03   -0.48696E-01  1728   0.111E+00    0.243E-01
RMM:   2    -0.116002707815E+04   -0.39460E-03   -0.11254E-02  1584   0.160E-01    0.229E-01
RMM:   3    -0.116002642162E+04    0.65653E-03   -0.63856E-04  1416   0.343E-02    0.197E-01
RMM:   4    -0.116002518442E+04    0.12372E-02   -0.41342E-03  1584   0.717E-02    0.672E-02
RMM:   5    -0.116002514137E+04    0.43052E-04   -0.12403E-04  1054   0.160E-02
   6 F= -.11671339E+04 E0= -.11671339E+04  d E =0.232920E-02  mag=     0.0000
       N       E                     dE             d eps       ncg     rms          rms(c)
DAV:   1    -0.116002873896E+04   -0.35545E-02   -0.23247E-01  1728   0.768E-01    0.156E-01
RMM:   2    -0.116002889178E+04   -0.15282E-03   -0.52918E-03  1584   0.110E-01    0.147E-01
RMM:   3    -0.116002856590E+04    0.32588E-03   -0.27545E-04  1154   0.234E-02    0.124E-01
RMM:   4    -0.116002800357E+04    0.56233E-03   -0.21035E-03  1584   0.508E-02    0.434E-02
RMM:   5    -0.116002798879E+04    0.14779E-04   -0.45288E-05   996   0.104E-02
   7 F= -.11671368E+04 E0= -.11671368E+04  d E =-.552840E-03  mag=     0.0000
