       N       E                     dE             d eps       ncg     rms          rms(c)
DAV:   1     0.469339962302E+04    0.46934E+04   -0.17369E+05  1908   0.905E+02
DAV:   2    -0.778077757268E+02   -0.47712E+04   -0.43266E+04  2520   0.212E+02
DAV:   3    -0.118035890462E+04   -0.11026E+04   -0.10973E+04  2088   0.109E+02
DAV:   4    -0.123423869397E+04   -0.53880E+02   -0.53594E+02  2196   0.353E+01
DAV:   5    -0.123577693607E+04   -0.15382E+01   -0.15293E+01  2124   0.489E+00    0.648E+01
RMM:   6    -0.121683318962E+04    0.18944E+02   -0.93368E+00  1862   0.383E+00    0.535E+01
RMM:   7    -0.119298214907E+04    0.23851E+02   -0.12348E+02  1920   0.128E+01    0.405E+01
RMM:   8    -0.118548190210E+04    0.75002E+01   -0.57876E+00  1983   0.691E+00    0.349E+01
RMM:   9    -0.117559406298E+04    0.98878E+01   -0.37920E+00  2071   0.201E+00    0.285E+01
RMM:  10    -0.116957563174E+04    0.60184E+01   -0.93885E+00  1789   0.366E+00    0.230E+01
RMM:  11    -0.117114886188E+04   -0.15732E+01   -0.14216E+01  1894   0.558E+00    0.170E+01
RMM:  12    -0.116988843810E+04    0.12604E+01   -0.34464E+00  1812   0.377E+00    0.118E+01
RMM:  13    -0.116649669753E+04    0.33917E+01   -0.18010E+00  1937   0.232E+00    0.704E+00
RMM:  14    -0.116605741017E+04    0.43929E+00   -0.67447E-01  1812   0.931E-01    0.572E+00
RMM:  15    -0.116467222784E+04    0.13852E+01   -0.12517E+00  1812   0.137E+00    0.351E+00
RMM:  16    -0.116423500672E+04    0.43722E+00   -0.66685E-01  1822   0.113E+00    0.215E+00
RMM:  17    -0.116453759313E+04   -0.30259E+00   -0.99545E-02  1873   0.634E-01    0.168E+00
RMM:  18    -0.116504116364E+04   -0.50357E+00   -0.71240E-02  1753   0.329E-01    0.142E+00
RMM:  19    -0.116546254089E+04   -0.42138E+00   -0.14472E-01  1780   0.383E-01    0.111E+00
RMM:  20    -0.116562669723E+04   -0.16416E+00   -0.74319E-02  1751   0.299E-01    0.101E+00
RMM:  21    -0.116570607899E+04   -0.79382E-01   -0.43569E-02  1619   0.199E-01    0.926E-01
RMM:  22    -0.116580764735E+04   -0.10157E+00   -0.11166E-01  1744   0.252E-01    0.746E-01
RMM:  23    -0.116583723446E+04   -0.29587E-01   -0.72835E-02  1638   0.212E-01    0.611E-01
RMM:  24    -0.116584429121E+04   -0.70568E-02   -0.25356E-02  1677   0.127E-01    0.563E-01
RMM:  25    -0.116584470224E+04   -0.41103E-03   -0.50872E-03  1451   0.770E-02    0.451E-01
RMM:  26    -0.116584429471E+04    0.40753E-03   -0.13855E-03  1309   0.549E-02    0.361E-01
RMM:  27    -0.116584390673E+04    0.38798E-03   -0.49449E-04  1235   0.404E-02    0.288E-01
RMM:  28    -0.116584373559E+04    0.17114E-03   -0.24907E-04  1145   0.385E-02    0.215E-01
RMM:  29    -0.116584362545E+04    0.11014E-03   -0.10527E-04  1082   0.262E-02    0.168E-01
RMM:  30    -0.116584354937E+04    0.76072E-04   -0.57045E-05  1059   0.197E-02
   1 F= -.11729102E+04 E0= -.11729102E+04  d E =-.117291E+04  mag=     1.0063
       N       E                     dE             d eps       ncg     rms          rms(c)
DAV:   1    -0.116584272516E+04    0.90029E-03   -0.30221E-01  1656   0.905E-01    0.198E-01
RMM:   2    -0.116584359074E+04   -0.86559E-03   -0.11285E-02  1908   0.159E-01    0.172E-01
RMM:   3    -0.116584347381E+04    0.11693E-03   -0.10366E-03  1539   0.907E-02    0.142E-01
RMM:   4    -0.116584322706E+04    0.24675E-03   -0.51407E-04  1435   0.429E-02    0.920E-02
RMM:   5    -0.116584322509E+04    0.19731E-05   -0.76737E-04  1529   0.556E-02
   2 F= -.11729098E+04 E0= -.11729098E+04  d E =0.419498E-03  mag=     0.9979
       N       E                     dE             d eps       ncg     rms          rms(c)
DAV:   1    -0.116584406383E+04   -0.83677E-03   -0.92789E-02  1764   0.499E-01    0.856E-02
RMM:   2    -0.116584420684E+04   -0.14301E-03   -0.26363E-03  1675   0.781E-02    0.791E-02
RMM:   3    -0.116584413035E+04    0.76490E-04   -0.28739E-04  1174   0.649E-02
   3 F= -.11729108E+04 E0= -.11729108E+04  d E =-.537094E-03  mag=     1.0001
