       N       E                     dE             d eps       ncg     rms          rms(c)
DAV:   1     0.493979369099E+04    0.49398E+04   -0.16940E+05  1692   0.988E+02
DAV:   2     0.154004165025E+02   -0.49244E+04   -0.45296E+04  2268   0.221E+02
DAV:   3    -0.116592368053E+04   -0.11813E+04   -0.11764E+04  1872   0.119E+02
DAV:   4    -0.121727967494E+04   -0.51356E+02   -0.51045E+02  1872   0.330E+01
DAV:   5    -0.121852848324E+04   -0.12488E+01   -0.12466E+01  2124   0.482E+00    0.600E+01
RMM:   6    -0.120655675810E+04    0.11972E+02   -0.71355E+00  1440   0.341E+00    0.488E+01
RMM:   7    -0.116625603752E+04    0.40301E+02   -0.61389E+01  1440   0.985E+00    0.291E+01
RMM:   8    -0.115546271289E+04    0.10793E+02   -0.46807E+01  1440   0.841E+00    0.136E+01
RMM:   9    -0.115665908616E+04   -0.11964E+01   -0.85811E+00  1442   0.374E+00    0.920E+00
RMM:  10    -0.115554633588E+04    0.11128E+01   -0.41353E+00  1440   0.242E+00    0.307E+00
RMM:  11    -0.115560077380E+04   -0.54438E-01   -0.37913E-01  1447   0.805E-01    0.193E+00
RMM:  12    -0.115549139013E+04    0.10938E+00   -0.22594E-01  1440   0.600E-01    0.551E-01
RMM:  13    -0.115549612227E+04   -0.47321E-02   -0.63970E-02  1440   0.311E-01    0.375E-01
RMM:  14    -0.115549167544E+04    0.44468E-02   -0.13896E-02  1440   0.134E-01    0.153E-01
RMM:  15    -0.115549238245E+04   -0.70701E-03   -0.29642E-03  1445   0.671E-02    0.108E-01
RMM:  16    -0.115549219034E+04    0.19211E-03   -0.17535E-03  1440   0.519E-02    0.675E-02
RMM:  17    -0.115549216219E+04    0.28150E-04   -0.39054E-04  1122   0.248E-02
   1 F= -.11625597E+04 E0= -.11625597E+04  d E =-.116256E+04  mag=    -0.0004
       N       E                     dE             d eps       ncg     rms          rms(c)
DAV:   1    -0.115549504031E+04   -0.28500E-02   -0.21548E-01  1512   0.754E-01    0.206E-01
RMM:   2    -0.115549457860E+04    0.46171E-03   -0.38178E-03  1441   0.981E-02    0.188E-01
RMM:   3    -0.115549326955E+04    0.13090E-02   -0.10556E-03  1440   0.407E-02    0.124E-01
RMM:   4    -0.115549252602E+04    0.74353E-03   -0.31426E-03  1440   0.655E-02    0.421E-02
RMM:   5    -0.115549251298E+04    0.13036E-04   -0.91193E-05   878   0.137E-02
   2 F= -.11625601E+04 E0= -.11625601E+04  d E =-.402161E-03  mag=    -0.0002
       N       E                     dE             d eps       ncg     rms          rms(c)
DAV:   1    -0.115549303711E+04   -0.51109E-03   -0.25324E-02  1548   0.258E-01    0.642E-02
RMM:   2    -0.115549297863E+04    0.58478E-04   -0.35624E-04  1034   0.318E-02
   3 F= -.11625606E+04 E0= -.11625606E+04  d E =-.849044E-03  mag=    -0.0000
