       N       E                     dE             d eps       ncg     rms          rms(c)
DAV:   1     0.497135287871E+04    0.49714E+04   -0.17466E+05  1872   0.920E+02
DAV:   2    -0.176876573701E+02   -0.49890E+04   -0.45446E+04  2520   0.215E+02
DAV:   3    -0.118805669051E+04   -0.11704E+04   -0.11649E+04  2088   0.114E+02
DAV:   4    -0.124612638790E+04   -0.58070E+02   -0.57781E+02  2196   0.368E+01
DAV:   5    -0.124772130115E+04   -0.15949E+01   -0.15875E+01  2160   0.519E+00    0.677E+01
RMM:   6    -0.123120684100E+04    0.16514E+02   -0.89990E+00  1821   0.373E+00    0.562E+01
RMM:   7    -0.119576560728E+04    0.35441E+02   -0.10750E+02  1926   0.126E+01    0.347E+01
RMM:   8    -0.118598865546E+04    0.97770E+01   -0.84120E+00  1950   0.730E+00    0.266E+01
RMM:   9    -0.118271240316E+04    0.32763E+01   -0.15841E+01  1704   0.454E+00    0.210E+01
RMM:  10    -0.118344416802E+04   -0.73176E+00   -0.14914E+01  1906   0.718E+00    0.131E+01
RMM:  11    -0.118079664779E+04    0.26475E+01   -0.34316E+00  1894   0.302E+00    0.853E+00
RMM:  12    -0.117958872609E+04    0.12079E+01   -0.13628E+00  1882   0.220E+00    0.585E+00
RMM:  13    -0.117964640851E+04   -0.57682E-01   -0.18317E+00  1852   0.150E+00    0.521E+00
RMM:  14    -0.117907774034E+04    0.56867E+00   -0.50727E-01  1886   0.144E+00    0.276E+00
RMM:  15    -0.117904360456E+04    0.34136E-01   -0.14534E-01  1846   0.593E-01    0.177E+00
RMM:  16    -0.117905392220E+04   -0.10318E-01   -0.41536E-02  1964   0.500E-01    0.192E+00
RMM:  17    -0.117904354640E+04    0.10376E-01   -0.17435E-02  1898   0.166E-01    0.137E+00
RMM:  18    -0.117904382099E+04   -0.27459E-03   -0.32405E-03  1700   0.124E-01    0.112E+00
RMM:  19    -0.117904231958E+04    0.15014E-02   -0.23341E-03  1695   0.855E-02    0.643E-01
RMM:  20    -0.117904298417E+04   -0.66459E-03   -0.61854E-04  1410   0.615E-02    0.401E-01
RMM:  21    -0.117904256778E+04    0.41639E-03   -0.35240E-04  1249   0.437E-02    0.232E-01
RMM:  22    -0.117904270149E+04   -0.13371E-03   -0.16790E-04  1106   0.375E-02    0.187E-01
RMM:  23    -0.117904243522E+04    0.26627E-03   -0.94552E-05  1064   0.280E-02    0.106E-01
RMM:  24    -0.117904234619E+04    0.89027E-04   -0.16941E-04  1099   0.206E-02
   1 F= -.11861993E+04 E0= -.11861993E+04  d E =-.118620E+04  mag=     0.0002
       N       E                     dE             d eps       ncg     rms          rms(c)
DAV:   1    -0.117904024890E+04    0.21863E-02   -0.35781E-01  1728   0.103E+00    0.193E-01
RMM:   2    -0.117904194944E+04   -0.17005E-02   -0.19836E-02  2009   0.191E-01    0.170E-01
RMM:   3    -0.117904180192E+04    0.14752E-03   -0.17995E-03  1581   0.107E-01    0.141E-01
RMM:   4    -0.117904156519E+04    0.23673E-03   -0.48463E-04  1238   0.434E-02    0.112E-01
RMM:   5    -0.117904136023E+04    0.20496E-03   -0.11092E-03  1626   0.543E-02    0.500E-02
RMM:   6    -0.117904137778E+04   -0.17555E-04   -0.26395E-04  1204   0.597E-02
   2 F= -.11861986E+04 E0= -.11861986E+04  d E =0.695829E-03  mag=    -0.0000
       N       E                     dE             d eps       ncg     rms          rms(c)
DAV:   1    -0.117904272440E+04   -0.13642E-02   -0.12514E-01  1764   0.606E-01    0.109E-01
RMM:   2    -0.117904315838E+04   -0.43399E-03   -0.58314E-03  1861   0.107E-01    0.972E-02
RMM:   3    -0.117904306258E+04    0.95809E-04   -0.53380E-04  1250   0.762E-02
   3 F= -.11862002E+04 E0= -.11862002E+04  d E =-.828499E-03  mag=    -0.0000
