       N       E                     dE             d eps       ncg     rms          rms(c)
DAV:   1     0.467534085742E+04    0.46753E+04   -0.17753E+05  1908   0.913E+02
DAV:   2    -0.107269306667E+03   -0.47826E+04   -0.43660E+04  2520   0.209E+02
DAV:   3    -0.119635172012E+04   -0.10891E+04   -0.10810E+04  2124   0.108E+02
DAV:   4    -0.124045151707E+04   -0.44100E+02   -0.43871E+02  2052   0.283E+01
DAV:   5    -0.124159411449E+04   -0.11426E+01   -0.11404E+01  2376   0.439E+00    0.988E+01
RMM:   6    -0.124271043969E+04   -0.11163E+01   -0.21134E+02  1976   0.198E+01    0.971E+01
RMM:   7    -0.122101264118E+04    0.21698E+02   -0.10480E+01  1597   0.524E+00    0.709E+01
RMM:   8    -0.119027946844E+04    0.30733E+02   -0.31793E+01  1591   0.768E+00    0.353E+01
RMM:   9    -0.117940744825E+04    0.10872E+02   -0.98245E+00  1584   0.442E+00    0.290E+01
RMM:  10    -0.116488554517E+04    0.14522E+02   -0.42594E+01  1584   0.797E+00    0.193E+01
RMM:  11    -0.116490921786E+04   -0.23673E-01   -0.15991E+01  1596   0.551E+00    0.906E+00
RMM:  12    -0.116514790489E+04   -0.23869E+00   -0.10929E+00  1675   0.155E+00    0.815E+00
RMM:  13    -0.116438479341E+04    0.76311E+00   -0.11816E+00  1601   0.149E+00    0.427E+00
RMM:  14    -0.116414743669E+04    0.23736E+00   -0.88191E-01  1591   0.106E+00    0.254E+00
RMM:  15    -0.116410139945E+04    0.46037E-01   -0.18891E-01  1588   0.533E-01    0.152E+00
RMM:  16    -0.116408033783E+04    0.21062E-01   -0.85084E-02  1631   0.380E-01    0.456E-01
RMM:  17    -0.116407960065E+04    0.73717E-03   -0.39627E-03  1675   0.781E-02    0.358E-01
RMM:  18    -0.116407923410E+04    0.36655E-03   -0.32581E-03  1592   0.804E-02    0.225E-01
RMM:  19    -0.116407926683E+04   -0.32733E-04   -0.21092E-03  1584   0.674E-02    0.150E-01
RMM:  20    -0.116407937384E+04   -0.10700E-03   -0.70740E-04  1316   0.369E-02    0.125E-01
RMM:  21    -0.116407935627E+04    0.17566E-04   -0.33174E-04  1204   0.255E-02
   1 F= -.11711171E+04 E0= -.11711166E+04  d E =-.117112E+04  mag=     0.9876
       N       E                     dE             d eps       ncg     rms          rms(c)
DAV:   1    -0.116407300468E+04    0.63692E-02   -0.58761E-01  1836   0.230E+00    0.263E-01
RMM:   2    -0.116408069337E+04   -0.76887E-02   -0.80439E-02  1801   0.363E-01    0.182E-01
RMM:   3    -0.116407905452E+04    0.16388E-02   -0.30946E-03  1738   0.880E-02    0.170E-01
RMM:   4    -0.116407872805E+04    0.32648E-03   -0.67794E-04  1365   0.284E-02    0.135E-01
RMM:   5    -0.116407846093E+04    0.26711E-03   -0.10778E-03  1551   0.374E-02    0.689E-02
RMM:   6    -0.116407845029E+04    0.10646E-04   -0.23265E-04  1105   0.236E-02
   2 F= -.11711164E+04 E0= -.11711158E+04  d E =0.787451E-03  mag=     0.9899
       N       E                     dE             d eps       ncg     rms          rms(c)
DAV:   1    -0.116407886266E+04   -0.40173E-03   -0.19564E-01  1656   0.132E+00    0.151E-01
RMM:   2    -0.116408120507E+04   -0.23424E-02   -0.25088E-02  1780   0.202E-01    0.105E-01
RMM:   3    -0.116408061468E+04    0.59039E-03   -0.81540E-04  1242   0.442E-02    0.972E-02
RMM:   4    -0.116408045592E+04    0.15876E-03   -0.31346E-04  1117   0.228E-02    0.685E-02
RMM:   5    -0.116408038401E+04    0.71914E-04   -0.46609E-04  1411   0.249E-02
   3 F= -.11711182E+04 E0= -.11711177E+04  d E =-.107480E-02  mag=     0.9901
