       N       E                     dE             d eps       ncg     rms          rms(c)
DAV:   1     0.488049136692E+04    0.48805E+04   -0.17781E+05  1872   0.929E+02
DAV:   2    -0.633904228224E+02   -0.49439E+04   -0.45336E+04  2520   0.212E+02
DAV:   3    -0.119886595588E+04   -0.11355E+04   -0.11305E+04  2232   0.110E+02
DAV:   4    -0.124440611321E+04   -0.45540E+02   -0.45252E+02  2016   0.278E+01
DAV:   5    -0.124572522140E+04   -0.13191E+01   -0.13158E+01  2484   0.408E+00    0.706E+01
RMM:   6    -0.123331910831E+04    0.12406E+02   -0.73393E+00  1584   0.313E+00    0.600E+01
RMM:   7    -0.118999464103E+04    0.43324E+02   -0.73198E+01  1586   0.973E+00    0.385E+01
RMM:   8    -0.118214815497E+04    0.78465E+01   -0.64531E+01  1588   0.905E+00    0.175E+01
RMM:   9    -0.118391406230E+04   -0.17659E+01   -0.65152E+00  1614   0.301E+00    0.118E+01
RMM:  10    -0.118150056072E+04    0.24135E+01   -0.58619E+00  1584   0.265E+00    0.382E+00
RMM:  11    -0.118138440707E+04    0.11615E+00   -0.24455E-01  1589   0.557E-01    0.262E+00
RMM:  12    -0.118131019224E+04    0.74215E-01   -0.13891E-01  1592   0.409E-01    0.158E+00
RMM:  13    -0.118127155173E+04    0.38641E-01   -0.14156E-01  1584   0.417E-01    0.530E-01
RMM:  14    -0.118126994043E+04    0.16113E-02   -0.14224E-02  1652   0.133E-01    0.236E-01
RMM:  15    -0.118127023074E+04   -0.29032E-03   -0.12606E-03  1623   0.395E-02    0.221E-01
RMM:  16    -0.118127039653E+04   -0.16579E-03   -0.81594E-04  1507   0.324E-02    0.130E-01
RMM:  17    -0.118127040651E+04   -0.99797E-05   -0.59131E-04  1485   0.296E-02
   1 F= -.11884376E+04 E0= -.11884326E+04  d E =-.118844E+04  mag=    -0.8578
       N       E                     dE             d eps       ncg     rms          rms(c)
DAV:   1    -0.118126637664E+04    0.40199E-02   -0.12369E+00  1620   0.157E+00    0.558E-01
RMM:   2    -0.118126931917E+04   -0.29425E-02   -0.38720E-02  1598   0.241E-01    0.573E-01
RMM:   3    -0.118126901225E+04    0.30692E-03   -0.18908E-03  1674   0.500E-02    0.575E-01
RMM:   4    -0.118126874164E+04    0.27061E-03   -0.22184E-04  1134   0.190E-02    0.522E-01
RMM:   5    -0.118126986488E+04   -0.11232E-02   -0.12223E-02  1588   0.113E-01    0.223E-01
RMM:   6    -0.118126933715E+04    0.52772E-03   -0.32516E-04  1167   0.236E-02    0.177E-01
RMM:   7    -0.118126893433E+04    0.40282E-03   -0.34389E-03  1565   0.552E-02    0.561E-02
RMM:   8    -0.118126892222E+04    0.12110E-04   -0.36503E-04  1312   0.198E-02
   2 F= -.11884365E+04 E0= -.11884316E+04  d E =0.112917E-02  mag=    -0.8554
       N       E                     dE             d eps       ncg     rms          rms(c)
DAV:   1    -0.118127136579E+04   -0.24315E-02   -0.42516E-01  1692   0.915E-01    0.336E-01
RMM:   2    -0.118127201090E+04   -0.64512E-03   -0.11061E-02  1590   0.131E-01    0.344E-01
RMM:   3    -0.118127185468E+04    0.15623E-03   -0.42378E-04  1210   0.252E-02    0.345E-01
RMM:   4    -0.118127174779E+04    0.10689E-03   -0.10026E-04  1042   0.139E-02    0.300E-01
RMM:   5    -0.118127212134E+04   -0.37355E-03   -0.35819E-03  1584   0.612E-02    0.129E-01
RMM:   6    -0.118127201154E+04    0.10979E-03   -0.65992E-05  1046   0.114E-02    0.113E-01
RMM:   7    -0.118127190008E+04    0.11146E-03   -0.15311E-03  1520   0.362E-02    0.673E-02
RMM:   8    -0.118127188415E+04    0.15934E-04   -0.21579E-04  1047   0.158E-02
   3 F= -.11884392E+04 E0= -.11884343E+04  d E =-.162018E-02  mag=    -0.8527
       N       E                     dE             d eps       ncg     rms          rms(c)
DAV:   1    -0.118127198765E+04   -0.87563E-04   -0.88514E-01  1656   0.113E+00    0.518E-01
RMM:   2    -0.118127306375E+04   -0.10761E-02   -0.20954E-02  1603   0.153E-01    0.526E-01
RMM:   3    -0.118127261983E+04    0.44392E-03   -0.77307E-04  1253   0.295E-02    0.520E-01
RMM:   4    -0.118127240211E+04    0.21772E-03   -0.23856E-03  1584   0.505E-02    0.210E-01
RMM:   5    -0.118127289473E+04   -0.49262E-03   -0.12932E-03  1584   0.377E-02    0.138E-01
RMM:   6    -0.118127266637E+04    0.22836E-03   -0.84623E-04  1420   0.259E-02    0.346E-02
RMM:   7    -0.118127265660E+04    0.97690E-05   -0.26166E-05  1000   0.678E-03
   4 F= -.11884406E+04 E0= -.11884357E+04  d E =-.140038E-02  mag=    -0.8528
       N       E                     dE             d eps       ncg     rms          rms(c)
DAV:   1    -0.118127284454E+04   -0.17817E-03   -0.44297E-02  1656   0.253E-01    0.117E-01
RMM:   2    -0.118127283443E+04    0.10101E-04   -0.98618E-04  1158   0.332E-02
   5 F= -.11884407E+04 E0= -.11884357E+04  d E =-.143528E-02  mag=    -0.8529
       N       E                     dE             d eps       ncg     rms          rms(c)
DAV:   1    -0.118127207721E+04    0.76732E-03   -0.75300E-01  1728   0.108E+00    0.330E-01
RMM:   2    -0.118127323355E+04   -0.11563E-02   -0.15590E-02  1590   0.142E-01    0.311E-01
RMM:   3    -0.118127298783E+04    0.24572E-03   -0.55538E-04  1236   0.282E-02    0.282E-01
RMM:   4    -0.118127335914E+04   -0.37131E-03   -0.19281E-03  1546   0.460E-02    0.631E-02
RMM:   5    -0.118127331338E+04    0.45754E-04   -0.42682E-05  1036   0.974E-03
   6 F= -.11884416E+04 E0= -.11884367E+04  d E =-.957588E-03  mag=    -0.8539
       N       E                     dE             d eps       ncg     rms          rms(c)
DAV:   1    -0.118127335182E+04    0.73196E-05   -0.31802E-02  1800   0.222E-01    0.797E-02
RMM:   2    -0.118127338102E+04   -0.29198E-04   -0.58717E-04  1093   0.276E-02
   7 F= -.11884416E+04 E0= -.11884367E+04  d E =-.923430E-03  mag=    -0.8538
