       N       E                     dE             d eps       ncg     rms          rms(c)
DAV:   1     0.489356214175E+04    0.48936E+04   -0.17389E+05  1824   0.940E+02
DAV:   2    -0.434319507139E+02   -0.49370E+04   -0.45110E+04  2432   0.216E+02
DAV:   3    -0.118819684755E+04   -0.11448E+04   -0.11388E+04  2016   0.113E+02
DAV:   4    -0.123754557126E+04   -0.49349E+02   -0.49077E+02  2016   0.323E+01
DAV:   5    -0.123882141565E+04   -0.12758E+01   -0.12727E+01  2272   0.470E+00    0.762E+01
RMM:   6    -0.122450816936E+04    0.14313E+02   -0.99249E+00  1566   0.402E+00    0.568E+01
RMM:   7    -0.119641034593E+04    0.28098E+02   -0.96675E+01  1630   0.108E+01    0.398E+01
RMM:   8    -0.119203363428E+04    0.43767E+01   -0.68851E+00  1582   0.467E+00    0.365E+01
RMM:   9    -0.118205055981E+04    0.99831E+01   -0.80038E+00  1547   0.379E+00    0.267E+01
RMM:  10    -0.117498662093E+04    0.70639E+01   -0.21684E+01  1657   0.594E+00    0.198E+01
RMM:  11    -0.117480024589E+04    0.18638E+00   -0.84438E+00  1549   0.408E+00    0.129E+01
RMM:  12    -0.117461916782E+04    0.18108E+00   -0.24467E+00  1772   0.245E+00    0.764E+00
RMM:  13    -0.117425160471E+04    0.36756E+00   -0.12984E+00  1589   0.144E+00    0.840E+00
RMM:  14    -0.117388341040E+04    0.36819E+00   -0.47236E-01  1564   0.103E+00    0.348E+00
RMM:  15    -0.117391993390E+04   -0.36523E-01   -0.15823E-01  1644   0.608E-01    0.252E+00
RMM:  16    -0.117392243911E+04   -0.25052E-02   -0.11735E-01  1611   0.424E-01    0.147E+00
RMM:  17    -0.117391463124E+04    0.78079E-02   -0.59724E-02  1623   0.366E-01    0.936E-01
RMM:  18    -0.117391307960E+04    0.15516E-02   -0.12609E-02  1780   0.178E-01    0.350E-01
RMM:  19    -0.117391310022E+04   -0.20615E-04   -0.26092E-03  1551   0.747E-02    0.307E-01
RMM:  20    -0.117391358284E+04   -0.48262E-03   -0.15805E-03  1604   0.571E-02    0.172E-01
RMM:  21    -0.117391347643E+04    0.10641E-03   -0.37802E-04  1655   0.321E-02    0.115E-01
RMM:  22    -0.117391345157E+04    0.24867E-04   -0.12385E-04  1547   0.159E-02    0.784E-02
RMM:  23    -0.117391344991E+04    0.16578E-05   -0.12866E-04  1592   0.155E-02    0.563E-02
RMM:  24    -0.117391343751E+04    0.12403E-04   -0.90287E-05  1556   0.131E-02    0.333E-02
RMM:  25    -0.117391343523E+04    0.22740E-05   -0.24981E-05  1764   0.782E-03    0.228E-02
RMM:  26    -0.117391343507E+04    0.16383E-06   -0.37574E-06  1173   0.296E-03
   1 F= -.11809714E+04 E0= -.11809714E+04  d E =-.118097E+04  mag=    -0.0004
       N       E                     dE             d eps       ncg     rms          rms(c)
DAV:   1    -0.117391123381E+04    0.22014E-02   -0.36786E-01  1760   0.117E+00    0.208E-01
RMM:   2    -0.117391280181E+04   -0.15680E-02   -0.17401E-02  1582   0.190E-01    0.254E-01
RMM:   3    -0.117391318843E+04   -0.38663E-03   -0.35079E-03  1900   0.802E-02    0.238E-01
RMM:   4    -0.117391320519E+04   -0.16754E-04   -0.37143E-04  1891   0.266E-02    0.255E-01
RMM:   5    -0.117391324335E+04   -0.38161E-04   -0.23785E-04  1575   0.190E-02    0.189E-01
RMM:   6    -0.117391346049E+04   -0.21714E-03   -0.72914E-04  1569   0.318E-02    0.206E-01
RMM:   7    -0.117391303092E+04    0.42957E-03   -0.43226E-04  1540   0.258E-02    0.188E-01
RMM:   8    -0.117391288959E+04    0.14133E-03   -0.29472E-04  1613   0.202E-02    0.141E-01
RMM:   9    -0.117391286616E+04    0.23433E-04   -0.73965E-05  1857   0.115E-02    0.122E-01
RMM:  10    -0.117391286636E+04   -0.19782E-06   -0.49231E-06  1221   0.315E-03
   2 F= -.11809714E+04 E0= -.11809714E+04  d E =0.392388E-04  mag=     0.0000
       N       E                     dE             d eps       ncg     rms          rms(c)
DAV:   1    -0.117391352542E+04   -0.65926E-03   -0.95804E-02  1792   0.593E-01    0.181E-01
RMM:   2    -0.117391382962E+04   -0.30420E-03   -0.36891E-03  1550   0.939E-02    0.198E-01
RMM:   3    -0.117391391835E+04   -0.88724E-04   -0.66789E-04  1853   0.381E-02    0.189E-01
RMM:   4    -0.117391405966E+04   -0.14132E-03   -0.14998E-04  1628   0.179E-02    0.278E-01
RMM:   5    -0.117391383681E+04    0.22285E-03   -0.67227E-04  1543   0.345E-02    0.468E-02
RMM:   6    -0.117391384291E+04   -0.60994E-05   -0.16732E-04  1678   0.175E-02    0.360E-02
RMM:   7    -0.117391383611E+04    0.67966E-05   -0.34578E-05  1725   0.801E-03    0.314E-02
RMM:   8    -0.117391381652E+04    0.19592E-04   -0.40357E-05  1550   0.752E-03    0.173E-02
RMM:   9    -0.117391381623E+04    0.29238E-06   -0.97724E-06  1504   0.470E-03
   3 F= -.11809720E+04 E0= -.11809720E+04  d E =-.641401E-03  mag=    -0.0000
       N       E                     dE             d eps       ncg     rms          rms(c)
DAV:   1    -0.117391368577E+04    0.13075E-03   -0.23784E-01  1856   0.912E-01    0.135E-01
RMM:   2    -0.117391431436E+04   -0.62859E-03   -0.72392E-03  1536   0.129E-01    0.135E-01
RMM:   3    -0.117391441812E+04   -0.10376E-03   -0.12015E-03  1748   0.510E-02    0.121E-01
RMM:   4    -0.117391438250E+04    0.35616E-04   -0.20309E-04  1673   0.205E-02    0.106E-01
RMM:   5    -0.117391436231E+04    0.20199E-04   -0.43062E-04  1542   0.258E-02    0.360E-02
RMM:   6    -0.117391436609E+04   -0.37791E-05   -0.72634E-05  1713   0.131E-02    0.295E-02
RMM:   7    -0.117391435039E+04    0.15693E-04   -0.20273E-05  1540   0.620E-03    0.215E-02
RMM:   8    -0.117391434865E+04    0.17405E-05   -0.10282E-05  1545   0.419E-03    0.143E-02
RMM:   9    -0.117391434709E+04    0.15591E-05   -0.47526E-06  1385   0.321E-03    0.982E-03
RMM:  10    -0.117391434695E+04    0.14606E-06   -0.62282E-06  1396   0.316E-03
   4 F= -.11809727E+04 E0= -.11809727E+04  d E =-.625849E-03  mag=     0.0000
       N       E                     dE             d eps       ncg     rms          rms(c)
DAV:   1    -0.117391435464E+04   -0.75447E-05   -0.17667E-03  1792   0.787E-02    0.123E-02
RMM:   2    -0.117391435944E+04   -0.47983E-05   -0.55416E-05  1536   0.115E-02    0.112E-02
RMM:   3    -0.117391435997E+04   -0.53558E-06   -0.87146E-06  1300   0.461E-03
   5 F= -.11809727E+04 E0= -.11809727E+04  d E =-.630604E-03  mag=     0.0000
       N       E                     dE             d eps       ncg     rms          rms(c)
DAV:   1    -0.117391397001E+04    0.38942E-03   -0.24184E-01  1728   0.912E-01    0.135E-01
RMM:   2    -0.117391471199E+04   -0.74198E-03   -0.83897E-03  1548   0.132E-01    0.104E-01
RMM:   3    -0.117391479234E+04   -0.80348E-04   -0.13083E-03  1710   0.507E-02    0.988E-02
RMM:   4    -0.117391476940E+04    0.22937E-04   -0.18468E-04  1714   0.205E-02    0.762E-02
RMM:   5    -0.117391477156E+04   -0.21515E-05   -0.22389E-04  1564   0.198E-02    0.394E-02
RMM:   6    -0.117391478104E+04   -0.94788E-05   -0.51716E-05  1830   0.107E-02    0.266E-02
RMM:   7    -0.117391476947E+04    0.11568E-04   -0.46029E-05  1540   0.789E-03    0.117E-02
RMM:   8    -0.117391477035E+04   -0.88500E-06   -0.56126E-06  1349   0.388E-03
   6 F= -.11809732E+04 E0= -.11809732E+04  d E =-.485707E-03  mag=     0.0000
       N       E                     dE             d eps       ncg     rms          rms(c)
DAV:   1    -0.117391477477E+04   -0.53013E-05   -0.28363E-03  1728   0.992E-02    0.138E-02
RMM:   2    -0.117391478341E+04   -0.86397E-05   -0.10124E-04  1548   0.147E-02    0.119E-02
RMM:   3    -0.117391478388E+04   -0.47638E-06   -0.14265E-05  1408   0.569E-03    0.102E-02
RMM:   4    -0.117391478285E+04    0.10349E-05   -0.38104E-06  1074   0.306E-03    0.720E-03
RMM:   5    -0.117391478242E+04    0.42801E-06   -0.36065E-06  1270   0.271E-03
   7 F= -.11809732E+04 E0= -.11809732E+04  d E =-.489527E-03  mag=    -0.0000
       N       E                     dE             d eps       ncg     rms          rms(c)
DAV:   1    -0.117391493821E+04   -0.15536E-03   -0.15793E-01  1728   0.675E-01    0.762E-02
RMM:   2    -0.117391523117E+04   -0.29296E-03   -0.35122E-03  1548   0.941E-02    0.970E-02
RMM:   3    -0.117391528395E+04   -0.52777E-04   -0.62464E-04  1778   0.376E-02    0.797E-02
RMM:   4    -0.117391527687E+04    0.70723E-05   -0.75533E-05  1730   0.135E-02    0.821E-02
RMM:   5    -0.117391525176E+04    0.25114E-04   -0.76834E-05  1538   0.115E-02    0.576E-02
RMM:   6    -0.117391527451E+04   -0.22754E-04   -0.15263E-04  1574   0.150E-02    0.377E-02
RMM:   7    -0.117391526313E+04    0.11382E-04   -0.15682E-05  1528   0.634E-03    0.306E-02
RMM:   8    -0.117391526000E+04    0.31277E-05   -0.12048E-05  1490   0.424E-03    0.231E-02
RMM:   9    -0.117391525996E+04    0.46159E-07   -0.14687E-06  1040   0.226E-03
   8 F= -.11809737E+04 E0= -.11809737E+04  d E =-.515261E-03  mag=    -0.0000
