       N       E                     dE             d eps       ncg     rms          rms(c)
DAV:   1     0.474747409048E+04    0.47475E+04   -0.17336E+05  1856   0.931E+02
DAV:   2    -0.580934277631E+02   -0.48056E+04   -0.43637E+04  2432   0.208E+02
DAV:   3    -0.118161372609E+04   -0.11235E+04   -0.11182E+04  2016   0.110E+02
DAV:   4    -0.122798934647E+04   -0.46376E+02   -0.46110E+02  1952   0.297E+01
DAV:   5    -0.122919949201E+04   -0.12101E+01   -0.12077E+01  2272   0.445E+00    0.674E+01
RMM:   6    -0.121137295334E+04    0.17827E+02   -0.11127E+01  1606   0.389E+00    0.518E+01
RMM:   7    -0.118743681046E+04    0.23936E+02   -0.28185E+01  1554   0.645E+00    0.353E+01
RMM:   8    -0.116640160090E+04    0.21035E+02   -0.33585E+01  1552   0.743E+00    0.234E+01
RMM:   9    -0.116176229551E+04    0.46393E+01   -0.26522E+01  1542   0.684E+00    0.120E+01
RMM:  10    -0.116293203929E+04   -0.11697E+01   -0.65180E+00  1594   0.364E+00    0.820E+00
RMM:  11    -0.116251107925E+04    0.42096E+00   -0.25281E+00  1538   0.205E+00    0.388E+00
RMM:  12    -0.116248108479E+04    0.29994E-01   -0.48133E-01  1547   0.965E-01    0.159E+00
RMM:  13    -0.116247150966E+04    0.95751E-02   -0.18486E-01  1576   0.581E-01    0.592E-01
RMM:  14    -0.116247275009E+04   -0.12404E-02   -0.40185E-02  1643   0.305E-01    0.299E-01
RMM:  15    -0.116247333670E+04   -0.58660E-03   -0.16627E-02  1746   0.177E-01    0.161E-01
RMM:  16    -0.116247382804E+04   -0.49135E-03   -0.29791E-03  1716   0.827E-02    0.121E-01
RMM:  17    -0.116247405650E+04   -0.22845E-03   -0.11525E-03  1592   0.484E-02    0.789E-02
RMM:  18    -0.116247421686E+04   -0.16037E-03   -0.45273E-04  1668   0.304E-02    0.557E-02
RMM:  19    -0.116247420005E+04    0.16814E-04   -0.13510E-04  1561   0.165E-02    0.406E-02
RMM:  20    -0.116247421892E+04   -0.18867E-04   -0.92657E-05  1587   0.125E-02    0.276E-02
RMM:  21    -0.116247422161E+04   -0.26875E-05   -0.54952E-05  1546   0.970E-03    0.176E-02
RMM:  22    -0.116247421796E+04    0.36447E-05   -0.15404E-05  1595   0.519E-03    0.105E-02
RMM:  23    -0.116247421883E+04   -0.87064E-06   -0.41462E-06  1268   0.282E-03
   1 F= -.11624742E+04 E0= -.11624742E+04  d E =-.116247E+04  mag=     1.9999
       N       E                     dE             d eps       ncg     rms          rms(c)
DAV:   1    -0.116230538731E+04    0.16883E+00   -0.39605E+01  1696   0.931E+00    0.316E+00
RMM:   2    -0.116240414911E+04   -0.98762E-01   -0.10547E+00  1679   0.147E+00    0.295E+00
RMM:   3    -0.116241310501E+04   -0.89559E-02   -0.24545E-01  1788   0.630E-01    0.234E+00
RMM:   4    -0.116239656035E+04    0.16545E-01   -0.14805E-01  1598   0.473E-01    0.938E-01
RMM:   5    -0.116240831553E+04   -0.11755E-01   -0.37571E-02  1787   0.250E-01    0.425E-01
RMM:   6    -0.116240792665E+04    0.38889E-03   -0.91820E-03  1651   0.105E-01    0.269E-01
RMM:   7    -0.116240743343E+04    0.49322E-03   -0.41796E-03  1600   0.762E-02    0.156E-01
RMM:   8    -0.116240758077E+04   -0.14734E-03   -0.15080E-03  2126   0.432E-02    0.107E-01
RMM:   9    -0.116240751731E+04    0.63456E-04   -0.21214E-04  1610   0.178E-02    0.768E-02
RMM:  10    -0.116240748438E+04    0.32933E-04   -0.47835E-04  1551   0.253E-02    0.345E-02
RMM:  11    -0.116240748264E+04    0.17444E-05   -0.70360E-05  1632   0.114E-02    0.220E-02
RMM:  12    -0.116240748379E+04   -0.11590E-05   -0.35392E-05  1594   0.735E-03    0.146E-02
RMM:  13    -0.116240748424E+04   -0.44977E-06   -0.12443E-05  1668   0.454E-03    0.888E-03
RMM:  14    -0.116240748413E+04    0.11105E-06   -0.50537E-06  1350   0.293E-03
   2 F= -.11624075E+04 E0= -.11624075E+04  d E =0.667347E-01  mag=     2.0000
       N       E                     dE             d eps       ncg     rms          rms(c)
DAV:   1    -0.116248617292E+04   -0.78689E-01   -0.14914E+01  1696   0.570E+00    0.191E+00
RMM:   2    -0.116251944548E+04   -0.33273E-01   -0.35638E-01  1680   0.898E-01    0.174E+00
RMM:   3    -0.116252145561E+04   -0.20101E-02   -0.81323E-02  1700   0.387E-01    0.140E+00
RMM:   4    -0.116251879772E+04    0.26579E-02   -0.52669E-02  1617   0.282E-01    0.605E-01
RMM:   5    -0.116251929199E+04   -0.49427E-03   -0.84688E-03  1832   0.130E-01    0.270E-01
RMM:   6    -0.116251915889E+04    0.13310E-03   -0.17700E-03  1750   0.515E-02    0.230E-01
RMM:   7    -0.116251901913E+04    0.13977E-03   -0.13775E-03  1591   0.428E-02    0.124E-01
RMM:   8    -0.116251904896E+04   -0.29838E-04   -0.24910E-04  1831   0.220E-02    0.937E-02
RMM:   9    -0.116251903756E+04    0.11400E-04   -0.27539E-04  1579   0.186E-02    0.430E-02
RMM:  10    -0.116251904107E+04   -0.35027E-05   -0.90884E-05  1652   0.115E-02    0.228E-02
RMM:  11    -0.116251903294E+04    0.81322E-05   -0.32205E-05  1566   0.721E-03    0.108E-02
RMM:  12    -0.116251903376E+04   -0.82409E-06   -0.15266E-05  1608   0.474E-03    0.731E-03
RMM:  13    -0.116251903313E+04    0.63132E-06   -0.35446E-06  1264   0.254E-03
   3 F= -.11625190E+04 E0= -.11625190E+04  d E =-.448143E-01  mag=     2.0000
       N       E                     dE             d eps       ncg     rms          rms(c)
DAV:   1    -0.116251401804E+04    0.50157E-02   -0.55631E+00  1632   0.380E+00    0.108E+00
RMM:   2    -0.116252444021E+04   -0.10422E-01   -0.12284E-01  1638   0.558E-01    0.921E-01
RMM:   3    -0.116252360790E+04    0.83231E-03   -0.29749E-02  1643   0.242E-01    0.625E-01
RMM:   4    -0.116252246841E+04    0.11395E-02   -0.14603E-02  1600   0.160E-01    0.261E-01
RMM:   5    -0.116252289357E+04   -0.42516E-03   -0.27941E-03  1910   0.772E-02    0.159E-01
RMM:   6    -0.116252264234E+04    0.25123E-03   -0.73922E-04  1617   0.347E-02    0.100E-01
RMM:   7    -0.116252261712E+04    0.25228E-04   -0.34184E-04  1726   0.227E-02    0.628E-02
RMM:   8    -0.116252254802E+04    0.69096E-04   -0.30024E-04  1549   0.214E-02    0.329E-02
RMM:   9    -0.116252254581E+04    0.22114E-05   -0.11629E-04  1611   0.145E-02    0.210E-02
RMM:  10    -0.116252253804E+04    0.77692E-05   -0.19419E-05  1609   0.653E-03    0.136E-02
RMM:  11    -0.116252253698E+04    0.10638E-05   -0.17643E-05  1570   0.500E-03    0.702E-03
RMM:  12    -0.116252253684E+04    0.13896E-06   -0.26699E-06  1128   0.249E-03
   4 F= -.11625225E+04 E0= -.11625225E+04  d E =-.350371E-02  mag=     2.0000
       N       E                     dE             d eps       ncg     rms          rms(c)
DAV:   1    -0.116252899751E+04   -0.64605E-02   -0.11604E+00  1632   0.173E+00    0.496E-01
RMM:   2    -0.116253117529E+04   -0.21778E-02   -0.25635E-02  1642   0.255E-01    0.417E-01
RMM:   3    -0.116253105194E+04    0.12335E-03   -0.61770E-03  1645   0.111E-01    0.286E-01
RMM:   4    -0.116253079779E+04    0.25415E-03   -0.28870E-03  1602   0.717E-02    0.122E-01
RMM:   5    -0.116253089719E+04   -0.99403E-04   -0.62026E-04  1888   0.358E-02    0.748E-02
RMM:   6    -0.116253084331E+04    0.53877E-04   -0.15591E-04  1612   0.163E-02    0.472E-02
RMM:   7    -0.116253084590E+04   -0.25849E-05   -0.68959E-05  1715   0.104E-02    0.303E-02
RMM:   8    -0.116253083119E+04    0.14710E-04   -0.56638E-05  1551   0.926E-03    0.170E-02
RMM:   9    -0.116253082974E+04    0.14489E-05   -0.28075E-05  1576   0.698E-03    0.981E-03
RMM:  10    -0.116253082868E+04    0.10649E-05   -0.45987E-06  1390   0.320E-03    0.605E-03
RMM:  11    -0.116253082885E+04   -0.17157E-06   -0.34437E-06  1263   0.224E-03
   5 F= -.11625308E+04 E0= -.11625308E+04  d E =-.117957E-01  mag=     2.0000
       N       E                     dE             d eps       ncg     rms          rms(c)
DAV:   1    -0.116253583097E+04   -0.50023E-02   -0.22047E+00  1664   0.243E+00    0.439E-01
RMM:   2    -0.116253783297E+04   -0.20020E-02   -0.32962E-02  1547   0.311E-01    0.385E-01
RMM:   3    -0.116253649819E+04    0.13348E-02   -0.70711E-03  1592   0.135E-01    0.280E-01
RMM:   4    -0.116253532431E+04    0.11739E-02   -0.62574E-03  1558   0.105E-01    0.118E-01
RMM:   5    -0.116253537377E+04   -0.49468E-04   -0.13848E-03  1686   0.538E-02    0.841E-02
RMM:   6    -0.116253528071E+04    0.93063E-04   -0.23717E-04  1728   0.215E-02    0.638E-02
RMM:   7    -0.116253526038E+04    0.20327E-04   -0.12274E-04  1612   0.140E-02    0.340E-02
RMM:   8    -0.116253524004E+04    0.20342E-04   -0.14698E-04  1564   0.146E-02    0.163E-02
RMM:   9    -0.116253523639E+04    0.36517E-05   -0.26062E-05  1684   0.745E-03    0.105E-02
RMM:  10    -0.116253523369E+04    0.27020E-05   -0.73696E-06  1508   0.373E-03    0.673E-03
RMM:  11    -0.116253523300E+04    0.68572E-06   -0.38470E-06  1273   0.263E-03
   6 F= -.11625352E+04 E0= -.11625352E+04  d E =-.440415E-02  mag=     2.0000
       N       E                     dE             d eps       ncg     rms          rms(c)
DAV:   1    -0.116253646748E+04   -0.12338E-02   -0.22064E-01  1664   0.769E-01    0.140E-01
RMM:   2    -0.116253666665E+04   -0.19918E-03   -0.32977E-03  1547   0.985E-02    0.122E-01
RMM:   3    -0.116253653881E+04    0.12784E-03   -0.69276E-04  1588   0.427E-02    0.886E-02
RMM:   4    -0.116253642993E+04    0.10888E-03   -0.65937E-04  1560   0.340E-02    0.364E-02
RMM:   5    -0.116253643410E+04   -0.41668E-05   -0.12642E-04  1695   0.165E-02    0.263E-02
RMM:   6    -0.116253642650E+04    0.75978E-05   -0.21509E-05  1692   0.644E-03    0.204E-02
RMM:   7    -0.116253642439E+04    0.21081E-05   -0.15390E-05  1564   0.478E-03    0.975E-03
RMM:   8    -0.116253642370E+04    0.69149E-06   -0.94141E-06  1542   0.385E-03
   7 F= -.11625364E+04 E0= -.11625364E+04  d E =-.559485E-02  mag=     2.0000
       N       E                     dE             d eps       ncg     rms          rms(c)
DAV:   1    -0.116253763193E+04   -0.12075E-02   -0.17745E+00  1536   0.221E+00    0.318E-01
RMM:   2    -0.116254027818E+04   -0.26462E-02   -0.34719E-02  1655   0.309E-01    0.279E-01
RMM:   3    -0.116254029194E+04   -0.13768E-04   -0.87456E-03  1653   0.135E-01    0.224E-01
RMM:   4    -0.116253961272E+04    0.67923E-03   -0.33390E-03  1664   0.802E-02    0.116E-01
RMM:   5    -0.116253960739E+04    0.53321E-05   -0.12848E-03  1654   0.488E-02    0.646E-02
RMM:   6    -0.116253957941E+04    0.27976E-04   -0.22759E-04  1828   0.222E-02    0.429E-02
RMM:   7    -0.116253957449E+04    0.49200E-05   -0.10607E-04  1592   0.124E-02    0.216E-02
RMM:   8    -0.116253957335E+04    0.11433E-05   -0.40197E-05  1687   0.774E-03    0.133E-02
RMM:   9    -0.116253956953E+04    0.38146E-05   -0.10582E-05  1574   0.445E-03    0.758E-03
RMM:  10    -0.116253956845E+04    0.10808E-05   -0.42207E-06  1333   0.279E-03    0.427E-03
RMM:  11    -0.116253956808E+04    0.37448E-06   -0.13402E-06  1040   0.163E-03
   8 F= -.11625396E+04 E0= -.11625396E+04  d E =-.314438E-02  mag=     2.0000
       N       E                     dE             d eps       ncg     rms          rms(c)
DAV:   1    -0.116253997667E+04   -0.40822E-03   -0.13998E-01  1664   0.621E-01    0.897E-02
RMM:   2    -0.116254018346E+04   -0.20679E-03   -0.27340E-03  1653   0.867E-02    0.783E-02
RMM:   3    -0.116254018610E+04   -0.26381E-05   -0.68213E-04  1653   0.379E-02    0.626E-02
RMM:   4    -0.116254013776E+04    0.48332E-04   -0.26444E-04  1659   0.225E-02    0.323E-02
RMM:   5    -0.116254013967E+04   -0.19104E-05   -0.10004E-04  1649   0.137E-02    0.180E-02
RMM:   6    -0.116254013779E+04    0.18832E-05   -0.17309E-05  1733   0.613E-03    0.121E-02
RMM:   7    -0.116254013769E+04    0.10461E-06   -0.88510E-06  1505   0.361E-03
   9 F= -.11625401E+04 E0= -.11625401E+04  d E =-.371399E-02  mag=     2.0000
       N       E                     dE             d eps       ncg     rms          rms(c)
DAV:   1    -0.116254040910E+04   -0.27131E-03   -0.11094E+00  1568   0.175E+00    0.227E-01
RMM:   2    -0.116254236363E+04   -0.19545E-02   -0.22815E-02  1661   0.243E-01    0.196E-01
RMM:   3    -0.116254270919E+04   -0.34557E-03   -0.58839E-03  1677   0.107E-01    0.161E-01
RMM:   4    -0.116254259466E+04    0.11454E-03   -0.14922E-03  1732   0.545E-02    0.931E-02
RMM:   5    -0.116254260631E+04   -0.11657E-04   -0.57331E-04  1658   0.317E-02    0.488E-02
RMM:   6    -0.116254260833E+04   -0.20159E-05   -0.11346E-04  1744   0.158E-02    0.259E-02
RMM:   7    -0.116254260758E+04    0.74763E-06   -0.46890E-05  1599   0.856E-03    0.166E-02
RMM:   8    -0.116254260622E+04    0.13557E-05   -0.18506E-05  1588   0.515E-03    0.103E-02
RMM:   9    -0.116254260496E+04    0.12631E-05   -0.79487E-06  1517   0.362E-03    0.568E-03
RMM:  10    -0.116254260486E+04    0.10649E-06   -0.19428E-06  1067   0.197E-03
  10 F= -.11625426E+04 E0= -.11625426E+04  d E =-.246717E-02  mag=     2.0000
       N       E                     dE             d eps       ncg     rms          rms(c)
DAV:   1    -0.116254263335E+04   -0.28389E-04   -0.25537E-02  1696   0.265E-01    0.348E-02
RMM:   2    -0.116254267738E+04   -0.44034E-04   -0.52965E-04  1660   0.373E-02    0.299E-02
RMM:   3    -0.116254268475E+04   -0.73691E-05   -0.13066E-04  1668   0.164E-02    0.245E-02
RMM:   4    -0.116254268264E+04    0.21161E-05   -0.40185E-05  1697   0.864E-03    0.135E-02
RMM:   5    -0.116254268324E+04   -0.60438E-06   -0.12534E-05  1580   0.477E-03    0.718E-03
RMM:   6    -0.116254268332E+04   -0.81815E-07   -0.27666E-06  1152   0.245E-03
  11 F= -.11625427E+04 E0= -.11625427E+04  d E =-.254564E-02  mag=     2.0000
       N       E                     dE             d eps       ncg     rms          rms(c)
DAV:   1    -0.116254335452E+04   -0.67128E-03   -0.78350E-01  1536   0.147E+00    0.181E-01
RMM:   2    -0.116254448657E+04   -0.11320E-02   -0.14063E-02  1637   0.201E-01    0.162E-01
RMM:   3    -0.116254461303E+04   -0.12646E-03   -0.33880E-03  1649   0.878E-02    0.139E-01
RMM:   4    -0.116254442548E+04    0.18754E-03   -0.12997E-03  1634   0.511E-02    0.672E-02
RMM:   5    -0.116254445943E+04   -0.33943E-04   -0.45600E-04  1661   0.294E-02    0.401E-02
RMM:   6    -0.116254444542E+04    0.14010E-04   -0.90237E-05  1739   0.135E-02    0.244E-02
RMM:   7    -0.116254444547E+04   -0.48683E-07   -0.38788E-05  1591   0.793E-03    0.129E-02
RMM:   8    -0.116254444354E+04    0.19242E-05   -0.17189E-05  1604   0.509E-03    0.851E-03
RMM:   9    -0.116254444283E+04    0.71308E-06   -0.79136E-06  1532   0.363E-03
  12 F= -.11625444E+04 E0= -.11625444E+04  d E =-.175951E-02  mag=     2.0000
       N       E                     dE             d eps       ncg     rms          rms(c)
DAV:   1    -0.116254445278E+04   -0.92350E-05   -0.81936E-03  1664   0.150E-01    0.188E-02
RMM:   2    -0.116254446446E+04   -0.11681E-04   -0.14973E-04  1630   0.207E-02    0.167E-02
RMM:   3    -0.116254446524E+04   -0.78538E-06   -0.35224E-05  1631   0.904E-03    0.142E-02
RMM:   4    -0.116254446249E+04    0.27486E-05   -0.15578E-05  1607   0.542E-03    0.660E-03
RMM:   5    -0.116254446258E+04   -0.89432E-07   -0.45658E-06  1368   0.296E-03
  13 F= -.11625445E+04 E0= -.11625445E+04  d E =-.177926E-02  mag=     2.0000
       N       E                     dE             d eps       ncg     rms          rms(c)
DAV:   1    -0.116254525641E+04   -0.79391E-03   -0.63878E-01  1536   0.130E+00    0.152E-01
RMM:   2    -0.116254591933E+04   -0.66293E-03   -0.92239E-03  1537   0.162E-01    0.143E-01
RMM:   3    -0.116254591602E+04    0.33155E-05   -0.18811E-03  1601   0.707E-02    0.127E-01
RMM:   4    -0.116254568334E+04    0.23268E-03   -0.15524E-03  1559   0.529E-02    0.427E-02
RMM:   5    -0.116254570406E+04   -0.20717E-04   -0.27105E-04  1691   0.245E-02    0.333E-02
RMM:   6    -0.116254568053E+04    0.23523E-04   -0.59028E-05  1584   0.104E-02    0.229E-02
RMM:   7    -0.116254568117E+04   -0.63328E-06   -0.30336E-05  1592   0.679E-03    0.126E-02
RMM:   8    -0.116254567971E+04    0.14565E-05   -0.17903E-05  1541   0.499E-03    0.729E-03
RMM:   9    -0.116254567930E+04    0.41391E-06   -0.54394E-06  1484   0.308E-03
  14 F= -.11625457E+04 E0= -.11625457E+04  d E =-.121671E-02  mag=     2.0000
       N       E                     dE             d eps       ncg     rms          rms(c)
DAV:   1    -0.116254570125E+04   -0.21538E-04   -0.11976E-02  1664   0.178E-01    0.211E-02
RMM:   2    -0.116254571419E+04   -0.12947E-04   -0.18045E-04  1536   0.227E-02    0.198E-02
RMM:   3    -0.116254571374E+04    0.45434E-06   -0.35905E-05  1597   0.981E-03    0.177E-02
RMM:   4    -0.116254570758E+04    0.61636E-05   -0.29196E-05  1549   0.723E-03    0.615E-03
RMM:   5    -0.116254570779E+04   -0.21723E-06   -0.56516E-06  1494   0.347E-03
  15 F= -.11625457E+04 E0= -.11625457E+04  d E =-.124521E-02  mag=     2.0000
       N       E                     dE             d eps       ncg     rms          rms(c)
DAV:   1    -0.116254606344E+04   -0.35586E-03   -0.35621E-01  1536   0.970E-01    0.111E-01
RMM:   2    -0.116254658104E+04   -0.51760E-03   -0.64676E-03  1637   0.133E-01    0.102E-01
RMM:   3    -0.116254664110E+04   -0.60059E-04   -0.14942E-03  1669   0.590E-02    0.883E-02
RMM:   4    -0.116254655905E+04    0.82050E-04   -0.59810E-04  1614   0.348E-02    0.402E-02
RMM:   5    -0.116254657965E+04   -0.20600E-04   -0.18628E-04  1669   0.186E-02    0.255E-02
RMM:   6    -0.116254657589E+04    0.37544E-05   -0.32390E-05  1678   0.836E-03    0.153E-02
RMM:   7    -0.116254657708E+04   -0.11806E-05   -0.14252E-05  1549   0.495E-03    0.860E-03
RMM:   8    -0.116254657600E+04    0.10793E-05   -0.77616E-06  1512   0.343E-03    0.484E-03
RMM:   9    -0.116254657616E+04   -0.16481E-06   -0.39115E-06  1315   0.243E-03
  16 F= -.11625466E+04 E0= -.11625466E+04  d E =-.868367E-03  mag=     2.0000
