       N       E                     dE             d eps       ncg     rms          rms(c)
DAV:   1     0.468600079969E+04    0.46860E+04   -0.17663E+05  1908   0.915E+02
DAV:   2    -0.112229295609E+03   -0.47982E+04   -0.43870E+04  2520   0.206E+02
DAV:   3    -0.119984518473E+04   -0.10876E+04   -0.10831E+04  2088   0.107E+02
DAV:   4    -0.124347769477E+04   -0.43633E+02   -0.43412E+02  2052   0.283E+01
DAV:   5    -0.124462625026E+04   -0.11486E+01   -0.11465E+01  2448   0.430E+00    0.725E+01
RMM:   6    -0.122572091285E+04    0.18905E+02   -0.16938E+01  1700   0.402E+00    0.549E+01
RMM:   7    -0.119809277892E+04    0.27628E+02   -0.32340E+01  1609   0.634E+00    0.362E+01
RMM:   8    -0.117734201594E+04    0.20751E+02   -0.35659E+01  1591   0.676E+00    0.237E+01
RMM:   9    -0.117612777754E+04    0.12142E+01   -0.36883E+01  1593   0.670E+00    0.957E+00
RMM:  10    -0.117586117088E+04    0.26661E+00   -0.12710E+00  1761   0.155E+00    0.773E+00
RMM:  11    -0.117510488575E+04    0.75629E+00   -0.19912E+00  1601   0.147E+00    0.288E+00
RMM:  12    -0.117484110433E+04    0.26378E+00   -0.42946E-01  1656   0.661E-01    0.161E+00
RMM:  13    -0.117481938103E+04    0.21723E-01   -0.18936E-01  1606   0.493E-01    0.404E-01
RMM:  14    -0.117481580980E+04    0.35712E-02   -0.10351E-02  1757   0.135E-01    0.261E-01
RMM:  15    -0.117481563924E+04    0.17057E-03   -0.34308E-03  1599   0.588E-02    0.212E-01
RMM:  16    -0.117481602048E+04   -0.38124E-03   -0.29253E-03  1630   0.625E-02    0.119E-01
RMM:  17    -0.117481595306E+04    0.67422E-04   -0.64196E-04  1395   0.304E-02
   1 F= -.11821300E+04 E0= -.11821300E+04  d E =-.118213E+04  mag=    -0.0063
       N       E                     dE             d eps       ncg     rms          rms(c)
DAV:   1    -0.117481166403E+04    0.43564E-02   -0.42744E-01  1728   0.984E-01    0.283E-01
RMM:   2    -0.117481435228E+04   -0.26882E-02   -0.30135E-02  1838   0.192E-01    0.363E-01
RMM:   3    -0.117481447199E+04   -0.11971E-03   -0.16411E-03  1370   0.466E-02    0.457E-01
RMM:   4    -0.117481414128E+04    0.33071E-03   -0.48808E-04  1222   0.243E-02    0.403E-01
RMM:   5    -0.117481401545E+04    0.12584E-03   -0.13801E-03  1586   0.420E-02    0.270E-01
RMM:   6    -0.117481399922E+04    0.16232E-04   -0.78591E-05  1059   0.121E-02
   2 F= -.11821287E+04 E0= -.11821287E+04  d E =0.134030E-02  mag=     0.0007
       N       E                     dE             d eps       ncg     rms          rms(c)
DAV:   1    -0.117481537354E+04   -0.13581E-02   -0.20264E-01  1656   0.676E-01    0.199E-01
RMM:   2    -0.117481651642E+04   -0.11429E-02   -0.13758E-02  1806   0.128E-01    0.146E-01
RMM:   3    -0.117481643411E+04    0.82310E-04   -0.71519E-04  1137   0.303E-02
   3 F= -.11821307E+04 E0= -.11821307E+04  d E =-.672212E-03  mag=     0.0002
