       N       E                     dE             d eps       ncg     rms          rms(c)
DAV:   1     0.487818086503E+04    0.48782E+04   -0.17314E+05  1872   0.910E+02
DAV:   2    -0.527820370577E+02   -0.49310E+04   -0.44852E+04  2520   0.205E+02
DAV:   3    -0.119014704030E+04   -0.11374E+04   -0.11331E+04  2160   0.109E+02
DAV:   4    -0.123513711622E+04   -0.44990E+02   -0.44770E+02  2052   0.285E+01
DAV:   5    -0.123628745666E+04   -0.11503E+01   -0.11479E+01  2304   0.422E+00    0.686E+01
RMM:   6    -0.122065932815E+04    0.15628E+02   -0.11151E+01  1614   0.351E+00    0.542E+01
RMM:   7    -0.119063070051E+04    0.30029E+02   -0.43739E+01  1606   0.741E+00    0.328E+01
RMM:   8    -0.117541716205E+04    0.15214E+02   -0.21944E+01  1591   0.530E+00    0.238E+01
RMM:   9    -0.117137497629E+04    0.40422E+01   -0.17883E+01  1584   0.478E+00    0.144E+01
RMM:  10    -0.117287136473E+04   -0.14964E+01   -0.65268E+00  1591   0.290E+00    0.774E+00
RMM:  11    -0.117198010324E+04    0.89126E+00   -0.11460E+00  1615   0.119E+00    0.445E+00
RMM:  12    -0.117177449100E+04    0.20561E+00   -0.83276E-01  1598   0.998E-01    0.178E+00
RMM:  13    -0.117175851524E+04    0.15976E-01   -0.61894E-02  1648   0.273E-01    0.105E+00
RMM:  14    -0.117175588011E+04    0.26351E-02   -0.45613E-02  1594   0.236E-01    0.632E-01
RMM:  15    -0.117175441526E+04    0.14649E-02   -0.98942E-03  1634   0.104E-01    0.396E-01
RMM:  16    -0.117175503148E+04   -0.61623E-03   -0.38430E-03  1597   0.682E-02    0.264E-01
RMM:  17    -0.117175423794E+04    0.79354E-03   -0.21963E-03  1594   0.512E-02    0.101E-01
RMM:  18    -0.117175426466E+04   -0.26718E-04   -0.54602E-04  1360   0.245E-02
   1 F= -.11790076E+04 E0= -.11790076E+04  d E =-.117901E+04  mag=     0.9898
       N       E                     dE             d eps       ncg     rms          rms(c)
DAV:   1    -0.117175199463E+04    0.22433E-02   -0.45291E-01  1908   0.109E+00    0.351E-01
RMM:   2    -0.117175381967E+04   -0.18250E-02   -0.20853E-02  1725   0.189E-01    0.310E-01
RMM:   3    -0.117175353559E+04    0.28408E-03   -0.12568E-03  1678   0.427E-02    0.254E-01
RMM:   4    -0.117175347370E+04    0.61894E-04   -0.24524E-03  1600   0.535E-02    0.978E-02
RMM:   5    -0.117175335227E+04    0.12143E-03   -0.12082E-04  1113   0.136E-02    0.623E-02
RMM:   6    -0.117175334463E+04    0.76379E-05   -0.61345E-05  1043   0.939E-03
   2 F= -.11790070E+04 E0= -.11790070E+04  d E =0.596925E-03  mag=     0.9993
       N       E                     dE             d eps       ncg     rms          rms(c)
DAV:   1    -0.117175454250E+04   -0.11902E-02   -0.16226E-01  1692   0.657E-01    0.211E-01
RMM:   2    -0.117175509548E+04   -0.55298E-03   -0.68931E-03  1714   0.110E-01    0.186E-01
RMM:   3    -0.117175495068E+04    0.14479E-03   -0.38225E-04  1202   0.247E-02    0.149E-01
RMM:   4    -0.117175490317E+04    0.47512E-04   -0.10052E-03  1568   0.350E-02    0.563E-02
RMM:   5    -0.117175486616E+04    0.37014E-04   -0.43348E-05  1039   0.896E-03
   3 F= -.11790083E+04 E0= -.11790083E+04  d E =-.728280E-03  mag=     0.9999
