       N       E                     dE             d eps       ncg     rms          rms(c)
DAV:   1     0.474745978018E+04    0.47475E+04   -0.17713E+05  1856   0.943E+02
DAV:   2    -0.788653968604E+02   -0.48263E+04   -0.44107E+04  2400   0.214E+02
DAV:   3    -0.119615940625E+04   -0.11173E+04   -0.11103E+04  2016   0.111E+02
DAV:   4    -0.124216962874E+04   -0.46010E+02   -0.45757E+02  1920   0.298E+01
DAV:   5    -0.124334681921E+04   -0.11772E+01   -0.11744E+01  2304   0.453E+00    0.789E+01
RMM:   6    -0.122280321882E+04    0.20544E+02   -0.30230E+01  1632   0.625E+00    0.574E+01
RMM:   7    -0.121258448616E+04    0.10219E+02   -0.97756E+00  1550   0.418E+00    0.470E+01
RMM:   8    -0.118862236945E+04    0.23962E+02   -0.28087E+01  1638   0.680E+00    0.317E+01
RMM:   9    -0.117944324711E+04    0.91791E+01   -0.11609E+01  1560   0.479E+00    0.245E+01
RMM:  10    -0.117215854853E+04    0.72847E+01   -0.19932E+01  1623   0.570E+00    0.160E+01
RMM:  11    -0.117342296842E+04   -0.12644E+01   -0.89645E+00  1557   0.416E+00    0.124E+01
RMM:  12    -0.117343352077E+04   -0.10552E-01   -0.15266E+00  1741   0.209E+00    0.865E+00
RMM:  13    -0.117319785706E+04    0.23566E+00   -0.34684E-01  1915   0.888E-01    0.618E+00
RMM:  14    -0.117275618465E+04    0.44167E+00   -0.15182E+00  1569   0.154E+00    0.233E+00
RMM:  15    -0.117273932191E+04    0.16863E-01   -0.16783E-01  1548   0.659E-01    0.228E+00
RMM:  16    -0.117273416279E+04    0.51591E-02   -0.55789E-02  1575   0.330E-01    0.141E+00
RMM:  17    -0.117273364062E+04    0.52217E-03   -0.20394E-02  1580   0.200E-01    0.669E-01
RMM:  18    -0.117273477515E+04   -0.11345E-02   -0.40335E-03  1551   0.980E-02    0.612E-01
RMM:  19    -0.117273653744E+04   -0.17623E-02   -0.50878E-03  1583   0.943E-02    0.393E-01
RMM:  20    -0.117273683076E+04   -0.29332E-03   -0.14282E-03  1567   0.549E-02    0.167E-01
RMM:  21    -0.117273705354E+04   -0.22278E-03   -0.10045E-03  1563   0.438E-02    0.142E-01
RMM:  22    -0.117273710862E+04   -0.55076E-04   -0.16359E-04  1589   0.211E-02    0.103E-01
RMM:  23    -0.117273707857E+04    0.30049E-04   -0.29552E-04  1546   0.225E-02    0.383E-02
RMM:  24    -0.117273710284E+04   -0.24271E-04   -0.43106E-05  1554   0.105E-02    0.536E-02
RMM:  25    -0.117273710714E+04   -0.42967E-05   -0.12542E-05  1549   0.558E-03    0.554E-02
RMM:  26    -0.117273710139E+04    0.57524E-05   -0.42550E-06  1192   0.298E-03    0.432E-02
RMM:  27    -0.117273709994E+04    0.14449E-05   -0.56580E-06  1241   0.299E-03    0.247E-02
RMM:  28    -0.117273710122E+04   -0.12821E-05   -0.36530E-06  1175   0.246E-03    0.686E-03
RMM:  29    -0.117273710212E+04   -0.89505E-06   -0.90122E-07  1038   0.145E-03
   1 F= -.11798034E+04 E0= -.11798033E+04  d E =-.117980E+04  mag=    -0.0021
       N       E                     dE             d eps       ncg     rms          rms(c)
DAV:   1    -0.117273458225E+04    0.25190E-02   -0.42839E-01  1920   0.129E+00    0.221E-01
RMM:   2    -0.117273600411E+04   -0.14219E-02   -0.16286E-02  1679   0.192E-01    0.239E-01
RMM:   3    -0.117273641998E+04   -0.41587E-03   -0.42843E-03  1859   0.825E-02    0.233E-01
RMM:   4    -0.117273646986E+04   -0.49877E-04   -0.56867E-04  2124   0.316E-02    0.254E-01
RMM:   5    -0.117273645228E+04    0.17582E-04   -0.71245E-05  1952   0.999E-03    0.246E-01
RMM:   6    -0.117273636530E+04    0.86980E-04   -0.65152E-04  1555   0.329E-02    0.212E-01
RMM:   7    -0.117273644692E+04   -0.81625E-04   -0.23726E-04  1550   0.202E-02    0.284E-01
RMM:   8    -0.117273653826E+04   -0.91340E-04   -0.53987E-05  1584   0.103E-02    0.328E-01
RMM:   9    -0.117273666557E+04   -0.12731E-03   -0.53320E-05  1545   0.887E-03    0.366E-01
RMM:  10    -0.117273666221E+04    0.33592E-05   -0.92147E-06  1631   0.417E-03    0.366E-01
RMM:  11    -0.117273677710E+04   -0.11489E-03   -0.23025E-05  1581   0.573E-03    0.396E-01
RMM:  12    -0.117273708438E+04   -0.30727E-03   -0.13758E-04  2124   0.127E-02    0.460E-01
RMM:  13    -0.117273725500E+04   -0.17062E-03   -0.37639E-05  1720   0.745E-03    0.494E-01
RMM:  14    -0.117273737578E+04   -0.12078E-03   -0.19849E-05  1646   0.551E-03    0.518E-01
RMM:  15    -0.117273703737E+04    0.33841E-03   -0.59046E-05  1975   0.871E-03    0.451E-01
RMM:  16    -0.117273673514E+04    0.30223E-03   -0.10781E-04  2239   0.116E-02    0.382E-01
RMM:  17    -0.117273631898E+04    0.41616E-03   -0.30882E-04  2460   0.194E-02    0.258E-01
RMM:  18    -0.117273603596E+04    0.28302E-03   -0.84411E-04  2583   0.319E-02    0.579E-02
RMM:  19    -0.117273605113E+04   -0.15170E-04   -0.10412E-04  2226   0.117E-02    0.343E-02
RMM:  20    -0.117273606011E+04   -0.89809E-05   -0.11201E-05  1596   0.417E-03    0.468E-02
RMM:  21    -0.117273612222E+04   -0.62111E-04   -0.90137E-05  2325   0.106E-02    0.110E-01
RMM:  22    -0.117273609481E+04    0.27412E-04   -0.64030E-06  1429   0.336E-03    0.930E-02
RMM:  23    -0.117273605269E+04    0.42120E-04   -0.48265E-05  2052   0.762E-03    0.509E-02
RMM:  24    -0.117273604895E+04    0.37351E-05   -0.36365E-06  1205   0.255E-03    0.450E-02
RMM:  25    -0.117273603552E+04    0.13434E-04   -0.31144E-05  2037   0.610E-03    0.163E-02
RMM:  26    -0.117273603361E+04    0.19076E-05   -0.83915E-06  1619   0.341E-03    0.880E-03
RMM:  27    -0.117273603342E+04    0.18996E-06   -0.29182E-06  1135   0.226E-03
   2 F= -.11798028E+04 E0= -.11798026E+04  d E =0.670799E-03  mag=    -0.0028
       N       E                     dE             d eps       ncg     rms          rms(c)
DAV:   1    -0.117273721948E+04   -0.11859E-02   -0.14813E-01  1888   0.754E-01    0.131E-01
RMM:   2    -0.117273762493E+04   -0.40545E-03   -0.49003E-03  1659   0.109E-01    0.142E-01
RMM:   3    -0.117273773579E+04   -0.11086E-03   -0.12018E-03  1723   0.451E-02    0.135E-01
RMM:   4    -0.117273774363E+04   -0.78377E-05   -0.17523E-04  2054   0.181E-02    0.146E-01
RMM:   5    -0.117273775126E+04   -0.76306E-05   -0.29720E-05  1802   0.695E-03    0.153E-01
RMM:   6    -0.117273783536E+04   -0.84097E-04   -0.15652E-04  1612   0.154E-02    0.150E-01
RMM:   7    -0.117273828395E+04   -0.44860E-03   -0.45190E-04  1613   0.249E-02    0.331E-01
RMM:   8    -0.117273769140E+04    0.59256E-03   -0.55849E-04  1702   0.299E-02    0.112E-01
RMM:   9    -0.117273764909E+04    0.42305E-04   -0.96184E-04  1771   0.373E-02    0.147E-01
RMM:  10    -0.117273764301E+04    0.60816E-05   -0.35065E-04  1611   0.239E-02    0.780E-02
RMM:  11    -0.117273763744E+04    0.55643E-05   -0.22393E-04  1640   0.200E-02    0.102E-01
RMM:  12    -0.117273767685E+04   -0.39402E-04   -0.75552E-05  1566   0.114E-02    0.142E-01
RMM:  13    -0.117273766701E+04    0.98344E-05   -0.83783E-06  1589   0.461E-03    0.133E-01
RMM:  14    -0.117273762640E+04    0.40608E-04   -0.22771E-05  1587   0.611E-03    0.818E-02
RMM:  15    -0.117273761155E+04    0.14855E-04   -0.39221E-05  1668   0.761E-03    0.352E-02
RMM:  16    -0.117273761103E+04    0.51894E-06   -0.86217E-06  1628   0.404E-03
   3 F= -.11798041E+04 E0= -.11798039E+04  d E =-.672416E-03  mag=    -0.0027
       N       E                     dE             d eps       ncg     rms          rms(c)
DAV:   1    -0.117273765402E+04   -0.42472E-04   -0.27165E-01  1888   0.101E+00    0.137E-01
RMM:   2    -0.117273825173E+04   -0.59770E-03   -0.71241E-03  1668   0.136E-01    0.144E-01
RMM:   3    -0.117273840060E+04   -0.14887E-03   -0.18622E-03  1693   0.576E-02    0.122E-01
RMM:   4    -0.117273839143E+04    0.91701E-05   -0.23598E-04  1947   0.226E-02    0.120E-01
RMM:   5    -0.117273832961E+04    0.61817E-04   -0.38430E-04  1540   0.246E-02    0.548E-02
RMM:   6    -0.117273837277E+04   -0.43159E-04   -0.20682E-04  1551   0.185E-02    0.409E-02
RMM:   7    -0.117273834287E+04    0.29900E-04   -0.35915E-05  1546   0.851E-03    0.288E-02
RMM:   8    -0.117273834481E+04   -0.19428E-05   -0.29378E-05  1540   0.616E-03    0.175E-02
RMM:   9    -0.117273834315E+04    0.16616E-05   -0.97963E-06  1605   0.409E-03    0.111E-02
RMM:  10    -0.117273834270E+04    0.45719E-06   -0.85238E-06  1495   0.372E-03
   4 F= -.11798049E+04 E0= -.11798048E+04  d E =-.841396E-03  mag=    -0.0026
       N       E                     dE             d eps       ncg     rms          rms(c)
DAV:   1    -0.117273834598E+04   -0.28287E-05   -0.37916E-04  1856   0.378E-02    0.562E-03
RMM:   2    -0.117273834696E+04   -0.98222E-06   -0.11510E-05  1626   0.571E-03    0.562E-03
RMM:   3    -0.117273834714E+04   -0.17543E-06   -0.28191E-06  1096   0.243E-03
   5 F= -.11798049E+04 E0= -.11798048E+04  d E =-.841688E-03  mag=    -0.0026
       N       E                     dE             d eps       ncg     rms          rms(c)
DAV:   1    -0.117273872121E+04   -0.37425E-03   -0.17073E-01  1664   0.713E-01    0.840E-02
RMM:   2    -0.117273894119E+04   -0.21997E-03   -0.27930E-03  1632   0.913E-02    0.868E-02
RMM:   3    -0.117273899255E+04   -0.51365E-04   -0.66231E-04  1678   0.393E-02    0.785E-02
RMM:   4    -0.117273898696E+04    0.55888E-05   -0.11114E-04  1963   0.160E-02    0.756E-02
RMM:   5    -0.117273895319E+04    0.33771E-04   -0.16510E-04  1538   0.165E-02    0.338E-02
RMM:   6    -0.117273897294E+04   -0.19751E-04   -0.10954E-04  1550   0.134E-02    0.243E-02
RMM:   7    -0.117273896108E+04    0.11864E-04   -0.15792E-05  1529   0.592E-03    0.190E-02
RMM:   8    -0.117273896256E+04   -0.14807E-05   -0.13941E-05  1512   0.422E-03    0.153E-02
RMM:   9    -0.117273896190E+04    0.66305E-06   -0.17212E-06  1043   0.215E-03
   6 F= -.11798056E+04 E0= -.11798055E+04  d E =-.695232E-03  mag=    -0.0025
