       N       E                     dE             d eps       ncg     rms          rms(c)
DAV:   1     0.491259198446E+04    0.49126E+04   -0.17315E+05  1872   0.912E+02
DAV:   2    -0.559593537004E+02   -0.49686E+04   -0.45406E+04  2520   0.208E+02
DAV:   3    -0.119836514212E+04   -0.11424E+04   -0.11376E+04  2052   0.110E+02
DAV:   4    -0.124536551373E+04   -0.47000E+02   -0.46771E+02  2052   0.304E+01
DAV:   5    -0.124670666054E+04   -0.13411E+01   -0.13386E+01  2376   0.474E+00    0.643E+01
RMM:   6    -0.123170758942E+04    0.14999E+02   -0.91176E+00  1623   0.344E+00    0.524E+01
RMM:   7    -0.119136365576E+04    0.40344E+02   -0.94046E+01  1651   0.109E+01    0.333E+01
RMM:   8    -0.118735358709E+04    0.40101E+01   -0.42481E+00  1745   0.294E+00    0.269E+01
RMM:   9    -0.117944338792E+04    0.79102E+01   -0.26090E+01  1607   0.586E+00    0.154E+01
RMM:  10    -0.118103792235E+04   -0.15945E+01   -0.11686E+01  1606   0.410E+00    0.111E+01
RMM:  11    -0.117859186576E+04    0.24461E+01   -0.25270E+00  1655   0.209E+00    0.457E+00
RMM:  12    -0.117831655414E+04    0.27531E+00   -0.11422E+00  1664   0.119E+00    0.339E+00
RMM:  13    -0.117826725771E+04    0.49296E-01   -0.10448E-01  1686   0.479E-01    0.240E+00
RMM:  14    -0.117824514312E+04    0.22115E-01   -0.13966E-01  1612   0.435E-01    0.173E+00
RMM:  15    -0.117824022153E+04    0.49216E-02   -0.20304E-02  1710   0.203E-01    0.910E-01
RMM:  16    -0.117824079130E+04   -0.56978E-03   -0.10690E-02  1697   0.108E-01    0.297E-01
RMM:  17    -0.117824037152E+04    0.41978E-03   -0.42282E-03  1658   0.726E-02    0.230E-01
RMM:  18    -0.117824064696E+04   -0.27544E-03   -0.12244E-03  1615   0.465E-02    0.136E-01
RMM:  19    -0.117824078648E+04   -0.13952E-03   -0.66039E-04  1418   0.342E-02    0.879E-02
RMM:  20    -0.117824084122E+04   -0.54739E-04   -0.68746E-04  1424   0.338E-02
   1 F= -.11853077E+04 E0= -.11853012E+04  d E =-.118531E+04  mag=    -0.7964
       N       E                     dE             d eps       ncg     rms          rms(c)
DAV:   1    -0.117822522390E+04    0.15563E-01   -0.25787E+00  1800   0.220E+00    0.618E-01
RMM:   2    -0.117823976326E+04   -0.14539E-01   -0.16832E-01  1750   0.399E-01    0.734E-01
RMM:   3    -0.117823924652E+04    0.51674E-03   -0.89007E-03  1665   0.114E-01    0.870E-01
RMM:   4    -0.117823776947E+04    0.14771E-02   -0.25753E-03  1513   0.453E-02    0.817E-01
RMM:   5    -0.117823699668E+04    0.77279E-03   -0.17981E-03  1570   0.449E-02    0.693E-01
RMM:   6    -0.117823662817E+04    0.36851E-03   -0.13890E-03  1378   0.411E-02    0.494E-01
RMM:   7    -0.117823656099E+04    0.67183E-04   -0.21340E-04  1091   0.185E-02
   2 F= -.11853045E+04 E0= -.11852987E+04  d E =0.321084E-02  mag=    -0.8142
       N       E                     dE             d eps       ncg     rms          rms(c)
DAV:   1    -0.117824007966E+04   -0.34515E-02   -0.88987E-01  1692   0.129E+00    0.379E-01
RMM:   2    -0.117824440731E+04   -0.43277E-02   -0.54548E-02  1678   0.229E-01    0.270E-01
RMM:   3    -0.117824374248E+04    0.66484E-03   -0.30206E-03  1297   0.658E-02    0.252E-01
RMM:   4    -0.117824358316E+04    0.15932E-03   -0.50302E-04  1152   0.225E-02    0.213E-01
RMM:   5    -0.117824336685E+04    0.21631E-03   -0.16837E-03  1546   0.426E-02    0.699E-02
RMM:   6    -0.117824335683E+04    0.10021E-04   -0.98127E-05  1063   0.168E-02
   3 F= -.11853107E+04 E0= -.11853050E+04  d E =-.296138E-02  mag=    -0.8219
       N       E                     dE             d eps       ncg     rms          rms(c)
DAV:   1    -0.117824103339E+04    0.23335E-02   -0.83923E-01  1800   0.126E+00    0.287E-01
RMM:   2    -0.117824400070E+04   -0.29673E-02   -0.35142E-02  1671   0.197E-01    0.325E-01
RMM:   3    -0.117824379131E+04    0.20939E-03   -0.18295E-03  1311   0.553E-02    0.381E-01
RMM:   4    -0.117824321327E+04    0.57804E-03   -0.51087E-04  1173   0.267E-02    0.340E-01
RMM:   5    -0.117824266558E+04    0.54769E-03   -0.22402E-03  1586   0.514E-02    0.240E-01
RMM:   6    -0.117824263192E+04    0.33665E-04   -0.92798E-05  1075   0.170E-02
   4 F= -.11853106E+04 E0= -.11853049E+04  d E =0.138536E-03  mag=    -0.8228
       N       E                     dE             d eps       ncg     rms          rms(c)
DAV:   1    -0.117824380205E+04   -0.11365E-02   -0.20874E-01  1800   0.631E-01    0.189E-01
RMM:   2    -0.117824453452E+04   -0.73247E-03   -0.87503E-03  1670   0.993E-02    0.127E-01
RMM:   3    -0.117824436307E+04    0.17145E-03   -0.46741E-04  1122   0.294E-02    0.847E-02
RMM:   4    -0.117824427164E+04    0.91433E-04   -0.21455E-04  1090   0.183E-02
   5 F= -.11853119E+04 E0= -.11853062E+04  d E =-.121109E-02  mag=    -0.8223
       N       E                     dE             d eps       ncg     rms          rms(c)
DAV:   1    -0.117824371042E+04    0.65265E-03   -0.40498E-01  1800   0.981E-01    0.135E-01
RMM:   2    -0.117824506586E+04   -0.13554E-02   -0.15593E-02  1666   0.149E-01    0.137E-01
RMM:   3    -0.117824494535E+04    0.12050E-03   -0.79995E-04  1198   0.390E-02    0.148E-01
RMM:   4    -0.117824494508E+04    0.27538E-06   -0.12978E-04  1066   0.157E-02
   6 F= -.11853131E+04 E0= -.11853074E+04  d E =-.117373E-02  mag=    -0.8222
       N       E                     dE             d eps       ncg     rms          rms(c)
DAV:   1    -0.117824434217E+04    0.60318E-03   -0.13425E-01  1800   0.565E-01    0.196E-01
RMM:   2    -0.117824456549E+04   -0.22332E-03   -0.49845E-03  1657   0.853E-02    0.202E-01
RMM:   3    -0.117824450558E+04    0.59913E-04   -0.24940E-04  1099   0.236E-02
   7 F= -.11853129E+04 E0= -.11853072E+04  d E =-.102571E-02  mag=    -0.8220
       N       E                     dE             d eps       ncg     rms          rms(c)
DAV:   1    -0.117824465953E+04   -0.94035E-04   -0.86695E-02  1800   0.438E-01    0.247E-01
RMM:   2    -0.117824469238E+04   -0.32853E-04   -0.33831E-03  1580   0.660E-02    0.245E-01
RMM:   3    -0.117824454284E+04    0.14954E-03   -0.18965E-04  1089   0.193E-02    0.230E-01
RMM:   4    -0.117824445866E+04    0.84182E-04   -0.27359E-03  1584   0.552E-02    0.463E-02
RMM:   5    -0.117824439870E+04    0.59956E-04   -0.74752E-05  1043   0.163E-02
   8 F= -.11853131E+04 E0= -.11853073E+04  d E =-.131108E-03  mag=    -0.8200
       N       E                     dE             d eps       ncg     rms          rms(c)
DAV:   1    -0.117824435812E+04    0.10054E-03   -0.77165E-04  1872   0.396E-02    0.332E-02
RMM:   2    -0.117824436227E+04   -0.41510E-05   -0.35343E-05   921   0.853E-03
   9 F= -.11853131E+04 E0= -.11853073E+04  d E =-.112965E-03  mag=    -0.8202
