       N       E                     dE             d eps       ncg     rms          rms(c)
DAV:   1     0.484673620881E+04    0.48467E+04   -0.16790E+05  1792   0.923E+02
DAV:   2    -0.472241361128E+02   -0.48940E+04   -0.44273E+04  2432   0.214E+02
DAV:   3    -0.118243344985E+04   -0.11352E+04   -0.11177E+04  2016   0.112E+02
DAV:   4    -0.123137745783E+04   -0.48944E+02   -0.48657E+02  2016   0.312E+01
DAV:   5    -0.123274079395E+04   -0.13633E+01   -0.13606E+01  2368   0.507E+00    0.751E+01
RMM:   6    -0.123739449744E+04   -0.46537E+01   -0.96645E+01  1701   0.147E+01    0.817E+01
RMM:   7    -0.121449829082E+04    0.22896E+02   -0.13221E+01  1538   0.675E+00    0.503E+01
RMM:   8    -0.119474338686E+04    0.19755E+02   -0.10028E+01  1547   0.461E+00    0.403E+01
RMM:   9    -0.120024828142E+04   -0.55049E+01   -0.46741E+01  1774   0.794E+00    0.553E+01
RMM:  10    -0.116050413513E+04    0.39744E+02   -0.19273E+01  1639   0.643E+00    0.210E+01
RMM:  11    -0.116532892601E+04   -0.48248E+01   -0.14067E+01  1636   0.564E+00    0.202E+01
RMM:  12    -0.116252222060E+04    0.28067E+01   -0.93323E+00  1608   0.451E+00    0.119E+01
RMM:  13    -0.116120035341E+04    0.13219E+01   -0.27499E+00  1743   0.222E+00    0.856E+00
RMM:  14    -0.116079174395E+04    0.40861E+00   -0.47533E-01  1586   0.989E-01    0.612E+00
RMM:  15    -0.116049452903E+04    0.29721E+00   -0.13139E+00  1582   0.146E+00    0.383E+00
RMM:  16    -0.116051167124E+04   -0.17142E-01   -0.17640E-01  1675   0.633E-01    0.291E+00
RMM:  17    -0.116049629499E+04    0.15376E-01   -0.31093E-02  1670   0.252E-01    0.245E+00
RMM:  18    -0.116050701629E+04   -0.10721E-01   -0.59623E-03  1631   0.121E-01    0.217E+00
RMM:  19    -0.116050416218E+04    0.28541E-02   -0.17215E-03  1859   0.568E-02    0.218E+00
RMM:  20    -0.116049816971E+04    0.59925E-02   -0.22324E-03  1543   0.621E-02    0.211E+00
RMM:  21    -0.116050219561E+04   -0.40259E-02   -0.14671E-02  1737   0.168E-01    0.117E+00
RMM:  22    -0.116051068163E+04   -0.84860E-02   -0.31148E-03  1600   0.791E-02    0.103E+00
RMM:  23    -0.116051283881E+04   -0.21572E-02   -0.64790E-04  1819   0.349E-02    0.989E-01
RMM:  24    -0.116051118984E+04    0.16490E-02   -0.81567E-04  1599   0.361E-02    0.976E-01
RMM:  25    -0.116051210966E+04   -0.91982E-03   -0.80324E-04  1694   0.356E-02    0.879E-01
RMM:  26    -0.116051848179E+04   -0.63721E-02   -0.14858E-03  1766   0.513E-02    0.706E-01
RMM:  27    -0.116051755614E+04    0.92564E-03   -0.14309E-04  1817   0.179E-02    0.711E-01
RMM:  28    -0.116052082438E+04   -0.32682E-02   -0.10790E-03  1967   0.448E-02    0.560E-01
RMM:  29    -0.116052714234E+04   -0.63180E-02   -0.10763E-02  2551   0.139E-01    0.361E-01
RMM:  30    -0.116052710041E+04    0.41922E-04   -0.30883E-03  2231   0.685E-02    0.234E-01
RMM:  31    -0.116052663003E+04    0.47039E-03   -0.53539E-04  1791   0.319E-02    0.262E-01
RMM:  32    -0.116052692744E+04   -0.29742E-03   -0.47509E-04  1785   0.303E-02    0.204E-01
RMM:  33    -0.116052698731E+04   -0.59867E-04   -0.12591E-04  1745   0.147E-02    0.147E-01
RMM:  34    -0.116052708201E+04   -0.94700E-04   -0.19723E-05  1530   0.627E-03    0.144E-01
RMM:  35    -0.116052657863E+04    0.50337E-03   -0.10949E-04  1702   0.131E-02    0.120E-01
RMM:  36    -0.116052628322E+04    0.29542E-03   -0.10316E-04  1695   0.117E-02    0.103E-01
RMM:  37    -0.116052618062E+04    0.10260E-03   -0.21258E-04  1969   0.175E-02    0.723E-02
RMM:  38    -0.116052633409E+04   -0.15348E-03   -0.14543E-04  2000   0.168E-02    0.441E-02
RMM:  39    -0.116052640856E+04   -0.74467E-04   -0.69418E-05  1780   0.125E-02    0.411E-02
RMM:  40    -0.116052645655E+04   -0.47987E-04   -0.29212E-05  1636   0.824E-03    0.274E-02
RMM:  41    -0.116052647382E+04   -0.17275E-04   -0.42546E-05  1720   0.970E-03    0.364E-02
RMM:  42    -0.116052648272E+04   -0.88962E-05   -0.21370E-05  1618   0.646E-03    0.304E-02
RMM:  43    -0.116052647989E+04    0.28226E-05   -0.10841E-05  1485   0.473E-03    0.196E-02
RMM:  44    -0.116052648138E+04   -0.14904E-05   -0.45568E-06  1227   0.317E-03    0.153E-02
RMM:  45    -0.116052648134E+04    0.45002E-07   -0.52050E-06  1274   0.329E-03
   1 F= -.11605265E+04 E0= -.11605265E+04  d E =-.116053E+04  mag=     0.0005
       N       E                     dE             d eps       ncg     rms          rms(c)
DAV:   1    -0.116051645729E+04    0.10024E-01   -0.70631E+00  1664   0.380E+00    0.683E-01
RMM:   2    -0.116052654395E+04   -0.10087E-01   -0.13482E-01  1632   0.675E-01    0.734E-01
RMM:   3    -0.116053003597E+04   -0.34920E-02   -0.44248E-02  1869   0.283E-01    0.659E-01
RMM:   4    -0.116052944921E+04    0.58676E-03   -0.60560E-03  1886   0.973E-02    0.637E-01
RMM:   5    -0.116052550443E+04    0.39448E-02   -0.92360E-03  1548   0.123E-01    0.320E-01
RMM:   6    -0.116052689795E+04   -0.13935E-02   -0.13125E-02  1551   0.130E-01    0.190E-01
RMM:   7    -0.116052586521E+04    0.10327E-02   -0.15834E-03  1536   0.625E-02    0.138E-01
RMM:   8    -0.116052607623E+04   -0.21102E-03   -0.97401E-04  1670   0.387E-02    0.803E-02
RMM:   9    -0.116052607431E+04    0.19166E-05   -0.13413E-04  1737   0.186E-02    0.727E-02
RMM:  10    -0.116052604443E+04    0.29885E-04   -0.12751E-04  1551   0.144E-02    0.565E-02
RMM:  11    -0.116052604647E+04   -0.20468E-05   -0.29068E-05  1749   0.738E-03    0.555E-02
RMM:  12    -0.116052604381E+04    0.26607E-05   -0.10088E-05  1487   0.402E-03    0.536E-02
RMM:  13    -0.116052597298E+04    0.70832E-04   -0.34346E-04  2172   0.190E-02    0.502E-02
RMM:  14    -0.116052599264E+04   -0.19657E-04   -0.31220E-05  1706   0.765E-03    0.521E-02
RMM:  15    -0.116052594028E+04    0.52361E-04   -0.66804E-05  1785   0.887E-03    0.356E-02
RMM:  16    -0.116052594010E+04    0.17967E-06   -0.13923E-05  1591   0.513E-03    0.300E-02
RMM:  17    -0.116052593904E+04    0.10606E-05   -0.16319E-06  1049   0.279E-03    0.300E-02
RMM:  18    -0.116052593844E+04    0.59687E-06   -0.10973E-06  1040   0.164E-03
   2 F= -.11605259E+04 E0= -.11605259E+04  d E =0.542900E-03  mag=    -0.0000
       N       E                     dE             d eps       ncg     rms          rms(c)
DAV:   1    -0.116053712811E+04   -0.11189E-01   -0.18249E+00  1760   0.192E+00    0.347E-01
RMM:   2    -0.116053906791E+04   -0.19398E-02   -0.29177E-02  1553   0.337E-01    0.377E-01
RMM:   3    -0.116053982524E+04   -0.75733E-03   -0.10336E-02  1819   0.147E-01    0.333E-01
RMM:   4    -0.116053967944E+04    0.14580E-03   -0.14184E-03  1903   0.497E-02    0.320E-01
RMM:   5    -0.116053877669E+04    0.90274E-03   -0.23857E-03  1545   0.625E-02    0.150E-01
RMM:   6    -0.116053914266E+04   -0.36596E-03   -0.29123E-03  1554   0.612E-02    0.854E-02
RMM:   7    -0.116053906126E+04    0.81391E-04   -0.25426E-04  1644   0.257E-02    0.794E-02
RMM:   8    -0.116053907411E+04   -0.12847E-04   -0.10437E-04  1614   0.138E-02    0.706E-02
RMM:   9    -0.116053913959E+04   -0.65484E-04   -0.36136E-05  1734   0.745E-03    0.764E-02
RMM:  10    -0.116053899828E+04    0.14132E-03   -0.13014E-04  1603   0.133E-02    0.633E-02
RMM:  11    -0.116053899932E+04   -0.10412E-05   -0.20839E-05  1550   0.670E-03    0.545E-02
RMM:  12    -0.116053898743E+04    0.11888E-04   -0.79193E-05  1703   0.101E-02    0.416E-02
RMM:  13    -0.116053899169E+04   -0.42628E-05   -0.74830E-06  1463   0.424E-03    0.417E-02
RMM:  14    -0.116053892823E+04    0.63459E-04   -0.15051E-04  2322   0.128E-02    0.347E-02
RMM:  15    -0.116053893063E+04   -0.24001E-05   -0.49588E-06  1229   0.333E-03    0.345E-02
RMM:  16    -0.116053893899E+04   -0.83590E-05   -0.78180E-06  1402   0.359E-03    0.309E-02
RMM:  17    -0.116053892190E+04    0.17093E-04   -0.59017E-06  1359   0.326E-03    0.294E-02
RMM:  18    -0.116053890434E+04    0.17559E-04   -0.16624E-05  1586   0.506E-03    0.233E-02
RMM:  19    -0.116053890239E+04    0.19466E-05   -0.25286E-05  1807   0.565E-03    0.121E-02
RMM:  20    -0.116053890303E+04   -0.63708E-06   -0.29410E-06  1154   0.351E-03
   3 F= -.11605389E+04 E0= -.11605389E+04  d E =-.124217E-01  mag=     0.0000
       N       E                     dE             d eps       ncg     rms          rms(c)
DAV:   1    -0.116054084369E+04   -0.19413E-02   -0.40455E+00  1696   0.274E+00    0.452E-01
RMM:   2    -0.116054369870E+04   -0.28550E-02   -0.43673E-02  1548   0.381E-01    0.432E-01
RMM:   3    -0.116054441841E+04   -0.71972E-03   -0.12454E-02  1843   0.171E-01    0.394E-01
RMM:   4    -0.116054388132E+04    0.53709E-03   -0.19466E-03  1691   0.669E-02    0.299E-01
RMM:   5    -0.116054411917E+04   -0.23785E-03   -0.38149E-03  1576   0.730E-02    0.126E-01
RMM:   6    -0.116054446569E+04   -0.34652E-03   -0.11776E-03  1842   0.447E-02    0.105E-01
RMM:   7    -0.116054421411E+04    0.25158E-03   -0.51502E-04  1592   0.270E-02    0.590E-02
RMM:   8    -0.116054429876E+04   -0.84652E-04   -0.28680E-04  1693   0.192E-02    0.316E-02
RMM:   9    -0.116054430112E+04   -0.23552E-05   -0.37432E-05  1729   0.918E-03    0.265E-02
RMM:  10    -0.116054434155E+04   -0.40430E-04   -0.36327E-05  1564   0.704E-03    0.266E-02
RMM:  11    -0.116054430646E+04    0.35087E-04   -0.24726E-05  1640   0.614E-03    0.224E-02
RMM:  12    -0.116054429578E+04    0.10676E-04   -0.47441E-06  1164   0.369E-03    0.179E-02
RMM:  13    -0.116054432203E+04   -0.26249E-04   -0.15704E-05  1526   0.427E-03    0.154E-02
RMM:  14    -0.116054431792E+04    0.41165E-05   -0.15958E-06  1054   0.229E-03    0.153E-02
RMM:  15    -0.116054430547E+04    0.12444E-04   -0.11901E-06  1041   0.172E-03    0.150E-02
RMM:  16    -0.116054429641E+04    0.90652E-05   -0.27703E-05  1762   0.542E-03    0.206E-02
RMM:  17    -0.116054431577E+04   -0.19367E-04   -0.57045E-06  1335   0.375E-03    0.240E-02
RMM:  18    -0.116054431361E+04    0.21692E-05   -0.80998E-07  1029   0.189E-03    0.241E-02
RMM:  19    -0.116054430858E+04    0.50240E-05   -0.48461E-07  1030   0.123E-03    0.234E-02
RMM:  20    -0.116054429458E+04    0.14004E-04   -0.50111E-06  1117   0.242E-03    0.238E-02
RMM:  21    -0.116054429751E+04   -0.29331E-05   -0.59390E-06  1295   0.272E-03    0.285E-02
RMM:  22    -0.116054430652E+04   -0.90043E-05   -0.30398E-06  1127   0.247E-03    0.317E-02
RMM:  23    -0.116054430881E+04   -0.22978E-05   -0.82968E-07  1022   0.185E-03    0.329E-02
RMM:  24    -0.116054430651E+04    0.23008E-05   -0.50061E-07  1018   0.139E-03    0.331E-02
RMM:  25    -0.116054430513E+04    0.13788E-05   -0.40340E-07  1012   0.105E-03    0.331E-02
RMM:  26    -0.116054430863E+04   -0.34924E-05   -0.11210E-06  1020   0.145E-03    0.350E-02
RMM:  27    -0.116054431407E+04   -0.54471E-05   -0.17289E-06  1047   0.179E-03    0.378E-02
RMM:  28    -0.116054431765E+04   -0.35811E-05   -0.12869E-06  1027   0.182E-03    0.400E-02
RMM:  29    -0.116054432196E+04   -0.43096E-05   -0.15333E-06  1047   0.194E-03    0.422E-02
RMM:  30    -0.116054432601E+04   -0.40457E-05   -0.13302E-06  1030   0.195E-03    0.443E-02
RMM:  31    -0.116054432803E+04   -0.20192E-05   -0.73426E-07   995   0.168E-03    0.454E-02
RMM:  32    -0.116054432935E+04   -0.13182E-05   -0.48291E-07   984   0.135E-03    0.463E-02
RMM:  33    -0.116054433157E+04   -0.22251E-05   -0.48386E-07   978   0.123E-03    0.474E-02
RMM:  34    -0.116054433240E+04   -0.82527E-06   -0.24598E-07   962   0.106E-03
   4 F= -.11605443E+04 E0= -.11605443E+04  d E =-.542937E-02  mag=     0.0000
       N       E                     dE             d eps       ncg     rms          rms(c)
DAV:   1    -0.116054569520E+04   -0.13636E-02   -0.45352E-01  1728   0.913E-01    0.152E-01
RMM:   2    -0.116054596601E+04   -0.27081E-03   -0.49137E-03  1546   0.129E-01    0.147E-01
RMM:   3    -0.116054605310E+04   -0.87090E-04   -0.14689E-03  1845   0.587E-02    0.132E-01
RMM:   4    -0.116054604985E+04    0.32515E-05   -0.19089E-04  1729   0.212E-02    0.109E-01
RMM:   5    -0.116054613760E+04   -0.87746E-04   -0.21947E-04  1564   0.189E-02    0.612E-02
RMM:   6    -0.116054633368E+04   -0.19608E-03   -0.14846E-04  1591   0.154E-02    0.579E-02
RMM:   7    -0.116054617877E+04    0.15490E-03   -0.76249E-05  1787   0.112E-02    0.428E-02
RMM:   8    -0.116054614729E+04    0.31485E-04   -0.10443E-05  1381   0.471E-03    0.350E-02
RMM:   9    -0.116054614928E+04   -0.19971E-05   -0.10032E-04  1747   0.977E-03    0.187E-02
RMM:  10    -0.116054616441E+04   -0.15123E-04   -0.60143E-06  1400   0.418E-03    0.183E-02
RMM:  11    -0.116054617708E+04   -0.12678E-04   -0.31923E-06  1108   0.250E-03    0.186E-02
RMM:  12    -0.116054614289E+04    0.34190E-04   -0.38847E-06  1131   0.262E-03    0.157E-02
RMM:  13    -0.116054614345E+04   -0.55854E-06   -0.57159E-06  1204   0.276E-03
   5 F= -.11605461E+04 E0= -.11605461E+04  d E =-.724042E-02  mag=     0.0000
       N       E                     dE             d eps       ncg     rms          rms(c)
DAV:   1    -0.116054810782E+04   -0.19649E-02   -0.24271E+00  1728   0.221E+00    0.353E-01
RMM:   2    -0.116054966378E+04   -0.15560E-02   -0.28120E-02  1542   0.320E-01    0.316E-01
RMM:   3    -0.116055007650E+04   -0.41272E-03   -0.80889E-03  1821   0.146E-01    0.289E-01
RMM:   4    -0.116054975368E+04    0.32282E-03   -0.14305E-03  1735   0.547E-02    0.238E-01
RMM:   5    -0.116054999478E+04   -0.24110E-03   -0.40343E-03  1611   0.763E-02    0.770E-02
RMM:   6    -0.116055008918E+04   -0.94399E-04   -0.38576E-04  1822   0.322E-02    0.709E-02
RMM:   7    -0.116055028704E+04   -0.19785E-03   -0.10979E-04  1619   0.138E-02    0.671E-02
RMM:   8    -0.116055050794E+04   -0.22090E-03   -0.48966E-05  1678   0.785E-03    0.723E-02
RMM:   9    -0.116055006386E+04    0.44408E-03   -0.15993E-04  1619   0.141E-02    0.540E-02
RMM:  10    -0.116055011069E+04   -0.46834E-04   -0.31500E-05  1592   0.712E-03    0.486E-02
RMM:  11    -0.116055015080E+04   -0.40108E-04   -0.88347E-06  1383   0.406E-03    0.489E-02
RMM:  12    -0.116054996867E+04    0.18212E-03   -0.12125E-04  2149   0.116E-02    0.404E-02
RMM:  13    -0.116054992555E+04    0.43127E-04   -0.18033E-05  1481   0.536E-03    0.393E-02
RMM:  14    -0.116054994693E+04   -0.21388E-04   -0.18737E-06  1090   0.254E-03    0.395E-02
RMM:  15    -0.116054988092E+04    0.66012E-04   -0.15235E-05  1592   0.438E-03    0.357E-02
RMM:  16    -0.116054970177E+04    0.17915E-03   -0.13766E-04  2256   0.129E-02    0.371E-02
RMM:  17    -0.116054973566E+04   -0.33881E-04   -0.34952E-05  1854   0.681E-03    0.277E-02
RMM:  18    -0.116054974676E+04   -0.11104E-04   -0.17503E-05  1730   0.524E-03    0.225E-02
RMM:  19    -0.116054974143E+04    0.53332E-05   -0.14688E-06  1037   0.292E-03    0.217E-02
RMM:  20    -0.116054971343E+04    0.27996E-04   -0.99391E-06  1184   0.340E-03    0.175E-02
RMM:  21    -0.116054971611E+04   -0.26794E-05   -0.12741E-05  1572   0.412E-03    0.116E-02
RMM:  22    -0.116054972696E+04   -0.10845E-04   -0.88852E-06  1554   0.426E-03    0.671E-03
RMM:  23    -0.116054972885E+04   -0.18937E-05   -0.13581E-06  1041   0.274E-03    0.562E-03
RMM:  24    -0.116054973071E+04   -0.18593E-05   -0.26368E-06  1105   0.217E-03    0.466E-03
RMM:  25    -0.116054973105E+04   -0.34099E-06   -0.49468E-07  1015   0.145E-03
   6 F= -.11605497E+04 E0= -.11605497E+04  d E =-.358760E-02  mag=    -0.0000
       N       E                     dE             d eps       ncg     rms          rms(c)
DAV:   1    -0.116055022543E+04   -0.49472E-03   -0.19093E-01  1728   0.622E-01    0.978E-02
RMM:   2    -0.116055030837E+04   -0.82939E-04   -0.21835E-03  1542   0.889E-02    0.879E-02
RMM:   3    -0.116055032944E+04   -0.21077E-04   -0.62964E-04  1821   0.402E-02    0.809E-02
RMM:   4    -0.116055031209E+04    0.17350E-04   -0.10616E-04  1726   0.152E-02    0.658E-02
RMM:   5    -0.116055034907E+04   -0.36979E-04   -0.30051E-04  1574   0.212E-02    0.197E-02
RMM:   6    -0.116055035170E+04   -0.26304E-05   -0.34039E-05  1790   0.942E-03    0.170E-02
RMM:   7    -0.116055035235E+04   -0.64343E-06   -0.10369E-05  1493   0.418E-03    0.123E-02
RMM:   8    -0.116055036332E+04   -0.10971E-04   -0.34702E-06  1118   0.281E-03    0.124E-02
RMM:   9    -0.116055035729E+04    0.60237E-05   -0.11131E-06  1044   0.207E-03    0.103E-02
RMM:  10    -0.116055035461E+04    0.26819E-05   -0.17897E-06  1054   0.180E-03    0.672E-03
RMM:  11    -0.116055035706E+04   -0.24492E-05   -0.35471E-06  1204   0.227E-03    0.510E-03
RMM:  12    -0.116055035823E+04   -0.11661E-05   -0.39064E-07  1020   0.146E-03    0.537E-03
RMM:  13    -0.116055035639E+04    0.18351E-05   -0.53681E-07  1025   0.105E-03    0.461E-03
RMM:  14    -0.116055035616E+04    0.23297E-06   -0.27760E-07   977   0.750E-04
   7 F= -.11605504E+04 E0= -.11605504E+04  d E =-.421271E-02  mag=     0.0000
       N       E                     dE             d eps       ncg     rms          rms(c)
DAV:   1    -0.116055326652E+04   -0.29101E-02   -0.16172E+00  1664   0.186E+00    0.278E-01
RMM:   2    -0.116055421154E+04   -0.94501E-03   -0.17530E-02  1542   0.253E-01    0.263E-01
RMM:   3    -0.116055447914E+04   -0.26760E-03   -0.52334E-03  1838   0.114E-01    0.237E-01
RMM:   4    -0.116055426737E+04    0.21177E-03   -0.82620E-04  1745   0.425E-02    0.196E-01
RMM:   5    -0.116055431289E+04   -0.45523E-04   -0.25464E-03  1597   0.621E-02    0.585E-02
RMM:   6    -0.116055433125E+04   -0.18364E-04   -0.28991E-04  1869   0.268E-02    0.518E-02
RMM:   7    -0.116055432748E+04    0.37710E-05   -0.74244E-05  1577   0.117E-02    0.411E-02
RMM:   8    -0.116055441182E+04   -0.84335E-04   -0.36214E-05  1718   0.768E-03    0.434E-02
RMM:   9    -0.116055430448E+04    0.10734E-03   -0.32273E-05  1577   0.732E-03    0.325E-02
RMM:  10    -0.116055430754E+04   -0.30624E-05   -0.83503E-06  1224   0.379E-03    0.278E-02
RMM:  11    -0.116055433522E+04   -0.27680E-04   -0.47262E-05  1725   0.785E-03    0.225E-02
RMM:  12    -0.116055434624E+04   -0.11018E-04   -0.30685E-06  1140   0.309E-03    0.234E-02
RMM:  13    -0.116055431941E+04    0.26826E-04   -0.13930E-05  1540   0.470E-03    0.192E-02
RMM:  14    -0.116055432668E+04   -0.72697E-05   -0.21070E-06  1073   0.270E-03    0.189E-02
RMM:  15    -0.116055433011E+04   -0.34302E-05   -0.56138E-07  1030   0.147E-03    0.190E-02
RMM:  16    -0.116055432380E+04    0.63086E-05   -0.15330E-06  1043   0.166E-03    0.180E-02
RMM:  17    -0.116055431575E+04    0.80544E-05   -0.75650E-06  1403   0.295E-03    0.134E-02
RMM:  18    -0.116055432154E+04   -0.57938E-05   -0.10076E-05  1608   0.412E-03    0.101E-02
RMM:  19    -0.116055432648E+04   -0.49327E-05   -0.15697E-06  1043   0.273E-03    0.956E-03
RMM:  20    -0.116055433184E+04   -0.53667E-05   -0.13518E-06  1052   0.152E-03    0.949E-03
RMM:  21    -0.116055432981E+04    0.20352E-05   -0.20112E-07  1008   0.974E-04    0.944E-03
RMM:  22    -0.116055432837E+04    0.14339E-05   -0.14231E-07   957   0.603E-04    0.939E-03
RMM:  23    -0.116055432146E+04    0.69129E-05   -0.17627E-06  1038   0.164E-03    0.859E-03
RMM:  24    -0.116055431622E+04    0.52391E-05   -0.64676E-06  1145   0.283E-03    0.726E-03
RMM:  25    -0.116055432041E+04   -0.41846E-05   -0.10906E-06  1018   0.159E-03    0.548E-03
RMM:  26    -0.116055432225E+04   -0.18452E-05   -0.85233E-07  1012   0.136E-03    0.387E-03
RMM:  27    -0.116055432335E+04   -0.11011E-05   -0.87954E-07  1003   0.135E-03    0.262E-03
RMM:  28    -0.116055432382E+04   -0.46661E-06   -0.82612E-07   991   0.134E-03
   8 F= -.11605543E+04 E0= -.11605543E+04  d E =-.396766E-02  mag=     0.0000
       N       E                     dE             d eps       ncg     rms          rms(c)
DAV:   1    -0.116055432401E+04   -0.65608E-06   -0.10839E-04  1856   0.153E-02    0.303E-03
RMM:   2    -0.116055432405E+04   -0.40076E-07   -0.13216E-06  1007   0.201E-03
   9 F= -.11605543E+04 E0= -.11605543E+04  d E =-.396789E-02  mag=     0.0000
       N       E                     dE             d eps       ncg     rms          rms(c)
DAV:   1    -0.116055673439E+04   -0.24104E-02   -0.12972E+00  1600   0.173E+00    0.252E-01
RMM:   2    -0.116055737270E+04   -0.63832E-03   -0.14047E-02  1548   0.218E-01    0.239E-01
RMM:   3    -0.116055752562E+04   -0.15292E-03   -0.40366E-03  1869   0.100E-01    0.216E-01
RMM:   4    -0.116055716870E+04    0.35692E-03   -0.70060E-04  1631   0.420E-02    0.157E-01
RMM:   5    -0.116055723017E+04   -0.61467E-04   -0.19332E-03  1586   0.537E-02    0.614E-02
RMM:   6    -0.116055721148E+04    0.18687E-04   -0.19185E-04  1702   0.248E-02    0.430E-02
RMM:   7    -0.116055725977E+04   -0.48295E-04   -0.95371E-05  1582   0.126E-02    0.277E-02
RMM:   8    -0.116055726547E+04   -0.56923E-05   -0.21977E-05  1679   0.665E-03    0.216E-02
RMM:   9    -0.116055727940E+04   -0.13937E-04   -0.29338E-05  1561   0.684E-03    0.186E-02
RMM:  10    -0.116055728526E+04   -0.58598E-05   -0.44352E-06  1178   0.325E-03    0.200E-02
RMM:  11    -0.116055727234E+04    0.12924E-04   -0.58254E-06  1338   0.329E-03    0.168E-02
RMM:  12    -0.116055727153E+04    0.80794E-06   -0.15332E-06  1053   0.221E-03
  10 F= -.11605573E+04 E0= -.11605573E+04  d E =-.294748E-02  mag=    -0.0000
       N       E                     dE             d eps       ncg     rms          rms(c)
DAV:   1    -0.116055728245E+04   -0.10116E-04   -0.65958E-04  1856   0.403E-02    0.120E-02
RMM:   2    -0.116055728362E+04   -0.11687E-05   -0.10494E-05  1531   0.598E-03    0.117E-02
RMM:   3    -0.116055728459E+04   -0.97138E-06   -0.22979E-06  1090   0.269E-03
  11 F= -.11605573E+04 E0= -.11605573E+04  d E =-.296054E-02  mag=    -0.0000
       N       E                     dE             d eps       ncg     rms          rms(c)
DAV:   1    -0.116055970750E+04   -0.24239E-02   -0.11170E+00  1536   0.161E+00    0.232E-01
RMM:   2    -0.116056021154E+04   -0.50404E-03   -0.12217E-02  1540   0.203E-01    0.220E-01
RMM:   3    -0.116056034489E+04   -0.13336E-03   -0.36053E-03  1851   0.953E-02    0.198E-01
RMM:   4    -0.116056007675E+04    0.26815E-03   -0.67535E-04  1646   0.414E-02    0.145E-01
RMM:   5    -0.116056018273E+04   -0.10598E-03   -0.14361E-03  1572   0.458E-02    0.660E-02
RMM:   6    -0.116056030818E+04   -0.12545E-03   -0.22343E-04  1911   0.226E-02    0.588E-02
RMM:   7    -0.116056035680E+04   -0.48625E-04   -0.35007E-05  1739   0.720E-03    0.607E-02
RMM:   8    -0.116056020285E+04    0.15395E-03   -0.43712E-05  1581   0.771E-03    0.521E-02
RMM:   9    -0.116056019285E+04    0.99999E-05   -0.11028E-05  1263   0.412E-03    0.483E-02
RMM:  10    -0.116056023411E+04   -0.41263E-04   -0.10556E-04  1863   0.110E-02    0.417E-02
RMM:  11    -0.116056027022E+04   -0.36111E-04   -0.62981E-06  1418   0.410E-03    0.430E-02
RMM:  12    -0.116056017895E+04    0.91278E-04   -0.42564E-05  1666   0.776E-03    0.344E-02
RMM:  13    -0.116056020352E+04   -0.24575E-04   -0.31608E-06  1105   0.311E-03    0.338E-02
RMM:  14    -0.116056021658E+04   -0.13057E-04   -0.13719E-06  1052   0.198E-03    0.342E-02
RMM:  15    -0.116056019491E+04    0.21665E-04   -0.82824E-06  1432   0.329E-03    0.296E-02
RMM:  16    -0.116056019924E+04   -0.43304E-05   -0.31136E-05  1794   0.672E-03    0.230E-02
RMM:  17    -0.116056021987E+04   -0.20623E-04   -0.26997E-05  1856   0.604E-03    0.181E-02
RMM:  18    -0.116056024272E+04   -0.22857E-04   -0.93658E-06  1361   0.509E-03    0.161E-02
RMM:  19    -0.116056025666E+04   -0.13939E-04   -0.34583E-06  1112   0.273E-03    0.161E-02
RMM:  20    -0.116056023877E+04    0.17897E-04   -0.18483E-06  1051   0.210E-03    0.157E-02
RMM:  21    -0.116056023473E+04    0.40315E-05   -0.63215E-07  1026   0.125E-03    0.153E-02
RMM:  22    -0.116056021330E+04    0.21439E-04   -0.23407E-05  1503   0.557E-03    0.947E-03
RMM:  23    -0.116056023024E+04   -0.16945E-04   -0.58818E-06  1183   0.411E-03    0.676E-03
RMM:  24    -0.116056023138E+04   -0.11357E-05   -0.43371E-06  1161   0.270E-03    0.384E-03
RMM:  25    -0.116056023455E+04   -0.31760E-05   -0.12779E-06  1025   0.175E-03    0.257E-03
RMM:  26    -0.116056023459E+04   -0.34597E-07   -0.42241E-07   992   0.125E-03
  12 F= -.11605602E+04 E0= -.11605602E+04  d E =-.294999E-02  mag=    -0.0000
       N       E                     dE             d eps       ncg     rms          rms(c)
DAV:   1    -0.116056032743E+04   -0.92879E-04   -0.68298E-02  1664   0.399E-01    0.574E-02
RMM:   2    -0.116056033964E+04   -0.12204E-04   -0.74656E-04  1540   0.502E-02    0.546E-02
RMM:   3    -0.116056034380E+04   -0.41655E-05   -0.22127E-04  1852   0.236E-02    0.491E-02
RMM:   4    -0.116056033223E+04    0.11575E-04   -0.40866E-05  1625   0.103E-02    0.354E-02
RMM:   5    -0.116056034708E+04   -0.14855E-04   -0.86158E-05  1556   0.113E-02    0.147E-02
RMM:   6    -0.116056035023E+04   -0.31482E-05   -0.12813E-05  1598   0.567E-03    0.997E-03
RMM:   7    -0.116056035312E+04   -0.28905E-05   -0.28223E-06  1103   0.281E-03    0.706E-03
RMM:   8    -0.116056035384E+04   -0.71566E-06   -0.19494E-06  1060   0.207E-03
  13 F= -.11605604E+04 E0= -.11605604E+04  d E =-.306924E-02  mag=    -0.0000
       N       E                     dE             d eps       ncg     rms          rms(c)
DAV:   1    -0.116056242110E+04   -0.20680E-02   -0.92546E-01  1536   0.145E+00    0.223E-01
RMM:   2    -0.116056275739E+04   -0.33629E-03   -0.10324E-02  1538   0.188E-01    0.214E-01
RMM:   3    -0.116056287500E+04   -0.11761E-03   -0.31360E-03  1845   0.884E-02    0.190E-01
RMM:   4    -0.116056266049E+04    0.21451E-03   -0.52831E-04  1653   0.378E-02    0.142E-01
RMM:   5    -0.116056275109E+04   -0.90593E-04   -0.14118E-03  1567   0.455E-02    0.584E-02
RMM:   6    -0.116056282925E+04   -0.78167E-04   -0.19861E-04  1881   0.218E-02    0.509E-02
RMM:   7    -0.116056289531E+04   -0.66052E-04   -0.30702E-05  1721   0.735E-03    0.536E-02
RMM:   8    -0.116056281641E+04    0.78900E-04   -0.90714E-06  1298   0.426E-03    0.464E-02
RMM:   9    -0.116056279266E+04    0.23742E-04   -0.30263E-05  1565   0.658E-03    0.317E-02
RMM:  10    -0.116056283919E+04   -0.46531E-04   -0.50548E-05  1684   0.790E-03    0.282E-02
RMM:  11    -0.116056285559E+04   -0.16391E-04   -0.50471E-06  1277   0.343E-03    0.294E-02
RMM:  12    -0.116056279224E+04    0.63343E-04   -0.12758E-05  1392   0.450E-03    0.238E-02
RMM:  13    -0.116056279638E+04   -0.41424E-05   -0.59048E-06  1206   0.326E-03    0.209E-02
RMM:  14    -0.116056281562E+04   -0.19234E-04   -0.11968E-05  1485   0.464E-03    0.168E-02
RMM:  15    -0.116056282875E+04   -0.13131E-04   -0.71506E-06  1426   0.392E-03    0.153E-02
RMM:  16    -0.116056283175E+04   -0.30041E-05   -0.94586E-07  1033   0.195E-03    0.156E-02
RMM:  17    -0.116056282866E+04    0.30888E-05   -0.62777E-06  1382   0.286E-03    0.145E-02
RMM:  18    -0.116056282696E+04    0.17051E-05   -0.18240E-06  1061   0.260E-03    0.129E-02
RMM:  19    -0.116056283136E+04   -0.43999E-05   -0.71533E-06  1390   0.344E-03    0.973E-03
RMM:  20    -0.116056283576E+04   -0.44047E-05   -0.24094E-06  1088   0.284E-03    0.769E-03
RMM:  21    -0.116056283904E+04   -0.32721E-05   -0.37294E-06  1215   0.251E-03    0.537E-03
RMM:  22    -0.116056284119E+04   -0.21556E-05   -0.13048E-06  1027   0.186E-03    0.507E-03
RMM:  23    -0.116056284030E+04    0.89495E-06   -0.29284E-07   990   0.115E-03
  14 F= -.11605628E+04 E0= -.11605628E+04  d E =-.248646E-02  mag=    -0.0000
       N       E                     dE             d eps       ncg     rms          rms(c)
DAV:   1    -0.116056307548E+04   -0.23428E-03   -0.20187E-01  1536   0.679E-01    0.104E-01
RMM:   2    -0.116056312089E+04   -0.45412E-04   -0.22406E-03  1538   0.876E-02    0.998E-02
RMM:   3    -0.116056313760E+04   -0.16717E-04   -0.67800E-04  1842   0.412E-02    0.887E-02
RMM:   4    -0.116056310164E+04    0.35968E-04   -0.11759E-04  1650   0.179E-02    0.662E-02
RMM:   5    -0.116056314732E+04   -0.45683E-04   -0.30560E-04  1564   0.213E-02    0.273E-02
RMM:   6    -0.116056316997E+04   -0.22648E-04   -0.45928E-05  1833   0.103E-02    0.221E-02
RMM:   7    -0.116056319896E+04   -0.28997E-04   -0.11739E-05  1395   0.435E-03    0.204E-02
RMM:   8    -0.116056322835E+04   -0.29387E-04   -0.68061E-06  1138   0.329E-03    0.218E-02
RMM:   9    -0.116056316323E+04    0.65124E-04   -0.13224E-05  1247   0.441E-03    0.179E-02
RMM:  10    -0.116056317812E+04   -0.14890E-04   -0.18022E-06  1080   0.200E-03    0.176E-02
RMM:  11    -0.116056318558E+04   -0.74596E-05   -0.37883E-07  1032   0.115E-03    0.178E-02
RMM:  12    -0.116056316507E+04    0.20502E-04   -0.24891E-06  1078   0.167E-03    0.164E-02
RMM:  13    -0.116056314909E+04    0.15981E-04   -0.86630E-06  1363   0.305E-03    0.134E-02
RMM:  14    -0.116056315661E+04   -0.75175E-05   -0.18750E-06  1079   0.223E-03    0.135E-02
RMM:  15    -0.116056315487E+04    0.17429E-05   -0.14251E-06  1043   0.163E-03    0.129E-02
RMM:  16    -0.116056315032E+04    0.45517E-05   -0.10951E-06  1036   0.122E-03    0.119E-02
RMM:  17    -0.116056314820E+04    0.21136E-05   -0.93324E-06  1417   0.343E-03    0.853E-03
RMM:  18    -0.116056315058E+04   -0.23729E-05   -0.63063E-07  1020   0.189E-03    0.806E-03
RMM:  19    -0.116056315302E+04   -0.24471E-05   -0.74810E-07  1013   0.114E-03    0.810E-03
RMM:  20    -0.116056315039E+04    0.26384E-05   -0.28455E-07   995   0.943E-04    0.770E-03
RMM:  21    -0.116056314678E+04    0.36092E-05   -0.11765E-06  1016   0.131E-03    0.710E-03
RMM:  22    -0.116056315025E+04   -0.34734E-05   -0.56090E-07  1004   0.108E-03    0.581E-03
RMM:  23    -0.116056315068E+04   -0.43499E-06   -0.30025E-06  1086   0.230E-03
  15 F= -.11605632E+04 E0= -.11605632E+04  d E =-.279685E-02  mag=    -0.0000
       N       E                     dE             d eps       ncg     rms          rms(c)
DAV:   1    -0.116056547752E+04   -0.23273E-02   -0.10907E+00  1536   0.156E+00    0.246E-01
RMM:   2    -0.116056584325E+04   -0.36573E-03   -0.12201E-02  1540   0.207E-01    0.239E-01
RMM:   3    -0.116056598460E+04   -0.14134E-03   -0.37527E-03  1812   0.972E-02    0.211E-01
RMM:   4    -0.116056574461E+04    0.23999E-03   -0.69278E-04  1650   0.428E-02    0.159E-01
RMM:   5    -0.116056585999E+04   -0.11539E-03   -0.16097E-03  1562   0.494E-02    0.635E-02
RMM:   6    -0.116056591192E+04   -0.51923E-04   -0.25448E-04  1880   0.242E-02    0.452E-02
RMM:   7    -0.116056594799E+04   -0.36075E-04   -0.52371E-05  1711   0.100E-02    0.319E-02
RMM:   8    -0.116056597335E+04   -0.25359E-04   -0.23027E-05  1572   0.660E-03    0.240E-02
RMM:   9    -0.116056598651E+04   -0.13159E-04   -0.34751E-05  1575   0.697E-03    0.207E-02
RMM:  10    -0.116056599749E+04   -0.10981E-04   -0.52859E-06  1213   0.334E-03    0.215E-02
RMM:  11    -0.116056598097E+04    0.16517E-04   -0.19476E-06  1065   0.227E-03    0.200E-02
RMM:  12    -0.116056597797E+04    0.30035E-05   -0.26461E-06  1085   0.214E-03    0.174E-02
RMM:  13    -0.116056599889E+04   -0.20916E-04   -0.59400E-06  1231   0.316E-03    0.164E-02
RMM:  14    -0.116056600245E+04   -0.35646E-05   -0.70701E-07  1034   0.163E-03    0.170E-02
RMM:  15    -0.116056597593E+04    0.26525E-04   -0.85627E-06  1337   0.339E-03    0.130E-02
RMM:  16    -0.116056598987E+04   -0.13940E-04   -0.19120E-06  1065   0.243E-03    0.117E-02
RMM:  17    -0.116056600523E+04   -0.15362E-04   -0.83041E-06  1334   0.378E-03    0.957E-03
RMM:  18    -0.116056600792E+04   -0.26962E-05   -0.83521E-07  1037   0.184E-03    0.989E-03
RMM:  19    -0.116056599791E+04    0.10019E-04   -0.13885E-06  1041   0.158E-03    0.924E-03
RMM:  20    -0.116056599839E+04   -0.48429E-06   -0.36635E-07  1011   0.958E-04
  16 F= -.11605660E+04 E0= -.11605660E+04  d E =-.284771E-02  mag=    -0.0000
       N       E                     dE             d eps       ncg     rms          rms(c)
DAV:   1    -0.116056632038E+04   -0.32247E-03   -0.65964E-01  1536   0.121E+00    0.192E-01
RMM:   2    -0.116056652058E+04   -0.20021E-03   -0.73543E-03  1539   0.160E-01    0.186E-01
RMM:   3    -0.116056659686E+04   -0.76279E-04   -0.22608E-03  1812   0.755E-02    0.165E-01
RMM:   4    -0.116056646208E+04    0.13478E-03   -0.41817E-04  1652   0.334E-02    0.124E-01
RMM:   5    -0.116056655134E+04   -0.89251E-04   -0.96993E-04  1560   0.385E-02    0.496E-02
RMM:   6    -0.116056658909E+04   -0.37756E-04   -0.15657E-04  1878   0.190E-02    0.359E-02
RMM:   7    -0.116056662039E+04   -0.31296E-04   -0.30935E-05  1668   0.769E-03    0.275E-02
RMM:   8    -0.116056665992E+04   -0.39533E-04   -0.15604E-05  1482   0.526E-03    0.270E-02
RMM:   9    -0.116056664052E+04    0.19396E-04   -0.38343E-06  1124   0.308E-03    0.249E-02
RMM:  10    -0.116056662991E+04    0.10617E-04   -0.62882E-06  1338   0.306E-03    0.209E-02
RMM:  11    -0.116056664234E+04   -0.12434E-04   -0.16763E-05  1527   0.481E-03    0.168E-02
RMM:  12    -0.116056665931E+04   -0.16965E-04   -0.49252E-06  1185   0.309E-03    0.162E-02
RMM:  13    -0.116056665880E+04    0.50225E-06   -0.70138E-07  1030   0.151E-03
  17 F= -.11605667E+04 E0= -.11605667E+04  d E =-.350812E-02  mag=    -0.0000
       N       E                     dE             d eps       ncg     rms          rms(c)
DAV:   1    -0.116056830329E+04   -0.16440E-02   -0.10353E+00  1536   0.151E+00    0.233E-01
RMM:   2    -0.116056869996E+04   -0.39667E-03   -0.11445E-02  1540   0.199E-01    0.224E-01
RMM:   3    -0.116056884671E+04   -0.14675E-03   -0.34813E-03  1817   0.942E-02    0.199E-01
RMM:   4    -0.116056871551E+04    0.13120E-03   -0.65986E-04  1658   0.409E-02    0.151E-01
RMM:   5    -0.116056899429E+04   -0.27878E-03   -0.13678E-03  1560   0.463E-02    0.657E-02
RMM:   6    -0.116056916774E+04   -0.17345E-03   -0.26334E-04  1871   0.236E-02    0.534E-02
RMM:   7    -0.116056930099E+04   -0.13324E-03   -0.52002E-05  1737   0.957E-03    0.510E-02
RMM:   8    -0.116056946059E+04   -0.15960E-03   -0.31314E-05  1428   0.616E-03    0.531E-02
RMM:   9    -0.116056912384E+04    0.33675E-03   -0.11269E-04  1568   0.119E-02    0.440E-02
RMM:  10    -0.116056903015E+04    0.93691E-04   -0.58182E-05  1566   0.836E-03    0.377E-02
RMM:  11    -0.116056910929E+04   -0.79145E-04   -0.33762E-05  1585   0.682E-03    0.363E-02
RMM:  12    -0.116056910535E+04    0.39470E-05   -0.34269E-06  1158   0.299E-03    0.365E-02
RMM:  13    -0.116056907939E+04    0.25960E-04   -0.30578E-06  1144   0.259E-03    0.354E-02
RMM:  14    -0.116056893733E+04    0.14205E-03   -0.62765E-05  1897   0.876E-03    0.316E-02
RMM:  15    -0.116056901244E+04   -0.75110E-04   -0.61237E-06  1182   0.429E-03    0.316E-02
RMM:  16    -0.116056898025E+04    0.32197E-04   -0.35465E-06  1094   0.251E-03    0.306E-02
RMM:  17    -0.116056893444E+04    0.45803E-04   -0.27553E-05  1603   0.568E-03    0.248E-02
RMM:  18    -0.116056894482E+04   -0.10373E-04   -0.33504E-05  1968   0.688E-03    0.199E-02
RMM:  19    -0.116056897867E+04   -0.33852E-04   -0.18411E-05  1766   0.636E-03    0.180E-02
RMM:  20    -0.116056898644E+04   -0.77709E-05   -0.27617E-06  1080   0.323E-03    0.177E-02
RMM:  21    -0.116056898215E+04    0.42932E-05   -0.80098E-07  1030   0.163E-03    0.177E-02
RMM:  22    -0.116056897856E+04    0.35917E-05   -0.44568E-07  1023   0.128E-03    0.169E-02
RMM:  23    -0.116056896611E+04    0.12448E-04   -0.11390E-05  1437   0.407E-03    0.115E-02
RMM:  24    -0.116056897078E+04   -0.46747E-05   -0.60645E-06  1231   0.380E-03    0.101E-02
RMM:  25    -0.116056897639E+04   -0.56101E-05   -0.20237E-06  1070   0.231E-03    0.747E-03
RMM:  26    -0.116056897707E+04   -0.67421E-06   -0.37653E-06  1250   0.239E-03
  18 F= -.11605690E+04 E0= -.11605690E+04  d E =-.231826E-02  mag=     0.0000
       N       E                     dE             d eps       ncg     rms          rms(c)
DAV:   1    -0.116056921789E+04   -0.24150E-03   -0.37088E-01  1536   0.907E-01    0.138E-01
RMM:   2    -0.116056931884E+04   -0.10095E-03   -0.40886E-03  1540   0.119E-01    0.133E-01
RMM:   3    -0.116056935379E+04   -0.34953E-04   -0.12377E-03  1818   0.562E-02    0.118E-01
RMM:   4    -0.116056930600E+04    0.47789E-04   -0.23493E-04  1655   0.243E-02    0.888E-02
RMM:   5    -0.116056937322E+04   -0.67218E-04   -0.45771E-04  1556   0.269E-02    0.347E-02
RMM:   6    -0.116056940150E+04   -0.28279E-04   -0.84261E-05  1863   0.138E-02    0.238E-02
RMM:   7    -0.116056940973E+04   -0.82321E-05   -0.13714E-05  1555   0.543E-03    0.177E-02
RMM:   8    -0.116056942045E+04   -0.10718E-04   -0.96361E-06  1439   0.434E-03    0.142E-02
RMM:   9    -0.116056942311E+04   -0.26627E-05   -0.34554E-06  1141   0.238E-03    0.147E-02
RMM:  10    -0.116056941799E+04    0.51215E-05   -0.25946E-06  1121   0.223E-03    0.130E-02
RMM:  11    -0.116056941415E+04    0.38410E-05   -0.18092E-06  1065   0.203E-03    0.108E-02
RMM:  12    -0.116056941824E+04   -0.40903E-05   -0.33871E-06  1158   0.244E-03    0.849E-03
RMM:  13    -0.116056942076E+04   -0.25204E-05   -0.12693E-06  1046   0.180E-03    0.777E-03
RMM:  14    -0.116056942412E+04   -0.33546E-05   -0.11948E-06  1055   0.160E-03    0.800E-03
RMM:  15    -0.116056941883E+04    0.52820E-05   -0.11646E-06  1036   0.155E-03    0.695E-03
RMM:  16    -0.116056941823E+04    0.60636E-06   -0.70082E-07  1037   0.134E-03
  19 F= -.11605694E+04 E0= -.11605694E+04  d E =-.275942E-02  mag=     0.0000
       N       E                     dE             d eps       ncg     rms          rms(c)
DAV:   1    -0.116057074414E+04   -0.13253E-02   -0.52393E-01  1536   0.109E+00    0.161E-01
RMM:   2    -0.116057097053E+04   -0.22639E-03   -0.60109E-03  1536   0.142E-01    0.147E-01
RMM:   3    -0.116057100789E+04   -0.37357E-04   -0.17824E-03  1827   0.681E-02    0.127E-01
RMM:   4    -0.116057096771E+04    0.40174E-04   -0.39480E-04  1657   0.301E-02    0.879E-02
RMM:   5    -0.116057106989E+04   -0.10218E-03   -0.45870E-04  1570   0.275E-02    0.400E-02
RMM:   6    -0.116057111175E+04   -0.41864E-04   -0.95396E-05  1914   0.148E-02    0.288E-02
RMM:   7    -0.116057112962E+04   -0.17863E-04   -0.16854E-05  1546   0.539E-03    0.252E-02
RMM:   8    -0.116057116200E+04   -0.32381E-04   -0.17567E-05  1517   0.507E-03    0.254E-02
RMM:   9    -0.116057114455E+04    0.17444E-04   -0.33941E-06  1157   0.282E-03    0.240E-02
RMM:  10    -0.116057110768E+04    0.36877E-04   -0.79440E-06  1136   0.334E-03    0.206E-02
RMM:  11    -0.116057112208E+04   -0.14405E-04   -0.66080E-06  1372   0.302E-03    0.201E-02
RMM:  12    -0.116057112091E+04    0.11673E-05   -0.10148E-06  1031   0.173E-03    0.196E-02
RMM:  13    -0.116057110662E+04    0.14291E-04   -0.35792E-06  1097   0.221E-03    0.171E-02
RMM:  14    -0.116057110682E+04   -0.19615E-06   -0.48523E-06  1161   0.246E-03
  20 F= -.11605711E+04 E0= -.11605711E+04  d E =-.168859E-02  mag=     0.0000
       N       E                     dE             d eps       ncg     rms          rms(c)
DAV:   1    -0.116057120559E+04   -0.98971E-04   -0.36721E-02  1664   0.290E-01    0.459E-02
RMM:   2    -0.116057121802E+04   -0.12431E-04   -0.42686E-04  1540   0.377E-02    0.428E-02
RMM:   3    -0.116057123236E+04   -0.14336E-04   -0.12666E-04  1827   0.181E-02    0.388E-02
RMM:   4    -0.116057126566E+04   -0.33294E-04   -0.26890E-05  1630   0.803E-03    0.340E-02
RMM:   5    -0.116057133885E+04   -0.73193E-04   -0.27887E-05  1512   0.654E-03    0.350E-02
RMM:   6    -0.116057124983E+04    0.89018E-04   -0.17668E-05  1492   0.585E-03    0.279E-02
RMM:   7    -0.116057123921E+04    0.10622E-04   -0.13267E-05  1275   0.466E-03    0.249E-02
RMM:   8    -0.116057127143E+04   -0.32224E-04   -0.22191E-06  1099   0.236E-03    0.256E-02
RMM:   9    -0.116057122798E+04    0.43454E-04   -0.18550E-05  1536   0.491E-03    0.198E-02
RMM:  10    -0.116057123691E+04   -0.89284E-05   -0.36820E-06  1124   0.302E-03    0.177E-02
RMM:  11    -0.116057125386E+04   -0.16956E-04   -0.93835E-06  1412   0.340E-03    0.170E-02
RMM:  12    -0.116057126191E+04   -0.80499E-05   -0.73581E-07  1025   0.206E-03    0.174E-02
RMM:  13    -0.116057123641E+04    0.25499E-04   -0.66766E-06  1153   0.294E-03    0.145E-02
RMM:  14    -0.116057122619E+04    0.10228E-04   -0.66251E-06  1153   0.277E-03    0.119E-02
RMM:  15    -0.116057122979E+04   -0.36036E-05   -0.81896E-06  1428   0.344E-03    0.883E-03
RMM:  16    -0.116057123119E+04   -0.14027E-05   -0.17489E-06  1067   0.250E-03    0.721E-03
RMM:  17    -0.116057123406E+04   -0.28652E-05   -0.27414E-06  1135   0.212E-03    0.558E-03
RMM:  18    -0.116057123589E+04   -0.18356E-05   -0.89767E-07  1015   0.169E-03    0.479E-03
RMM:  19    -0.116057123775E+04   -0.18605E-05   -0.89385E-07  1002   0.124E-03    0.473E-03
RMM:  20    -0.116057123675E+04    0.10057E-05   -0.15084E-07   928   0.807E-04    0.464E-03
RMM:  21    -0.116057123581E+04    0.93910E-06   -0.10866E-07   831   0.518E-04
  21 F= -.11605712E+04 E0= -.11605712E+04  d E =-.181758E-02  mag=    -0.0000
       N       E                     dE             d eps       ncg     rms          rms(c)
DAV:   1    -0.116057209664E+04   -0.85989E-03   -0.22043E-01  1536   0.722E-01    0.101E-01
RMM:   2    -0.116057220698E+04   -0.11034E-03   -0.25702E-03  1538   0.937E-02    0.906E-02
RMM:   3    -0.116057222609E+04   -0.19113E-04   -0.75711E-04  1797   0.442E-02    0.790E-02
RMM:   4    -0.116057222284E+04    0.32522E-05   -0.20199E-04  1641   0.223E-02    0.513E-02
RMM:   5    -0.116057224998E+04   -0.27140E-04   -0.11593E-04  1623   0.148E-02    0.276E-02
RMM:   6    -0.116057226859E+04   -0.18607E-04   -0.41095E-05  1804   0.878E-03    0.202E-02
RMM:   7    -0.116057227472E+04   -0.61291E-05   -0.17431E-05  1532   0.552E-03    0.142E-02
RMM:   8    -0.116057228837E+04   -0.13653E-04   -0.65231E-06  1285   0.364E-03    0.130E-02
RMM:   9    -0.116057228611E+04    0.22605E-05   -0.13610E-06  1065   0.196E-03    0.129E-02
RMM:  10    -0.116057228442E+04    0.16891E-05   -0.28662E-07  1024   0.107E-03    0.130E-02
RMM:  11    -0.116057228656E+04   -0.21451E-05   -0.44664E-07  1020   0.963E-04    0.132E-02
RMM:  12    -0.116057228412E+04    0.24490E-05   -0.43745E-06  1338   0.248E-03    0.131E-02
RMM:  13    -0.116057228616E+04   -0.20469E-05   -0.65376E-07  1029   0.181E-03    0.135E-02
RMM:  14    -0.116057228484E+04    0.13199E-05   -0.41241E-07  1021   0.104E-03    0.137E-02
RMM:  15    -0.116057228130E+04    0.35460E-05   -0.10787E-06  1030   0.144E-03    0.148E-02
RMM:  16    -0.116057227336E+04    0.79353E-05   -0.70281E-06  1397   0.311E-03    0.190E-02
RMM:  17    -0.116057228003E+04   -0.66681E-05   -0.11070E-06  1037   0.238E-03    0.201E-02
RMM:  18    -0.116057228186E+04   -0.18290E-05   -0.58816E-07  1030   0.120E-03    0.203E-02
RMM:  19    -0.116057228298E+04   -0.11224E-05   -0.34658E-06  1188   0.233E-03    0.241E-02
RMM:  20    -0.116057228218E+04    0.79766E-06   -0.28265E-06  1083   0.241E-03
  22 F= -.11605723E+04 E0= -.11605723E+04  d E =-.104637E-02  mag=    -0.0000
