       N       E                     dE             d eps       ncg     rms          rms(c)
DAV:   1     0.466736560746E+04    0.46674E+04   -0.17676E+05  1908   0.911E+02
DAV:   2    -0.104217828611E+03   -0.47716E+04   -0.43536E+04  2520   0.209E+02
DAV:   3    -0.119199921809E+04   -0.10878E+04   -0.10802E+04  2088   0.108E+02
DAV:   4    -0.123718453742E+04   -0.45185E+02   -0.44959E+02  2016   0.286E+01
DAV:   5    -0.123837410392E+04   -0.11896E+01   -0.11867E+01  2376   0.443E+00    0.997E+01
RMM:   6    -0.123990933531E+04   -0.15352E+01   -0.21347E+02  1881   0.188E+01    0.987E+01
RMM:   7    -0.121750322070E+04    0.22406E+02   -0.11059E+01  1591   0.498E+00    0.738E+01
RMM:   8    -0.118630100943E+04    0.31202E+02   -0.32993E+01  1590   0.760E+00    0.351E+01
RMM:   9    -0.117730679488E+04    0.89942E+01   -0.75064E+00  1586   0.378E+00    0.300E+01
RMM:  10    -0.116124072550E+04    0.16066E+02   -0.43283E+01  1584   0.795E+00    0.183E+01
RMM:  11    -0.116151454650E+04   -0.27382E+00   -0.15095E+01  1591   0.522E+00    0.855E+00
RMM:  12    -0.116165034192E+04   -0.13580E+00   -0.85111E-01  1701   0.142E+00    0.769E+00
RMM:  13    -0.116096239175E+04    0.68795E+00   -0.11711E+00  1595   0.145E+00    0.396E+00
RMM:  14    -0.116072748977E+04    0.23490E+00   -0.60373E-01  1586   0.857E-01    0.189E+00
RMM:  15    -0.116070693002E+04    0.20560E-01   -0.17127E-01  1591   0.530E-01    0.159E+00
RMM:  16    -0.116067990984E+04    0.27020E-01   -0.85299E-02  1662   0.359E-01    0.391E-01
RMM:  17    -0.116067941900E+04    0.49085E-03   -0.72826E-03  1614   0.115E-01    0.322E-01
RMM:  18    -0.116067926061E+04    0.15839E-03   -0.22082E-03  1616   0.547E-02    0.197E-01
RMM:  19    -0.116067925713E+04    0.34767E-05   -0.35285E-04  1197   0.304E-02
   1 F= -.11676520E+04 E0= -.11676520E+04  d E =-.116765E+04  mag=     0.0005
       N       E                     dE             d eps       ncg     rms          rms(c)
DAV:   1    -0.116067891270E+04    0.34792E-03   -0.46595E-01  1692   0.123E+00    0.268E-01
RMM:   2    -0.116067993225E+04   -0.10196E-02   -0.19635E-02  1705   0.208E-01    0.248E-01
RMM:   3    -0.116067905206E+04    0.88020E-03   -0.12087E-03  1724   0.529E-02    0.216E-01
RMM:   4    -0.116067737965E+04    0.16724E-02   -0.43165E-03  1584   0.734E-02    0.810E-02
RMM:   5    -0.116067733883E+04    0.40821E-04   -0.64572E-04  1580   0.321E-02
   2 F= -.11676503E+04 E0= -.11676503E+04  d E =0.169228E-02  mag=     0.0001
       N       E                     dE             d eps       ncg     rms          rms(c)
DAV:   1    -0.116068032078E+04   -0.29411E-02   -0.17820E-01  1584   0.755E-01    0.143E-01
RMM:   2    -0.116068058731E+04   -0.26653E-03   -0.59785E-03  1679   0.123E-01    0.134E-01
RMM:   3    -0.116068030987E+04    0.27743E-03   -0.30068E-04  1183   0.291E-02    0.120E-01
RMM:   4    -0.116067976878E+04    0.54109E-03   -0.10709E-03  1580   0.380E-02    0.530E-02
RMM:   5    -0.116067972214E+04    0.46640E-04   -0.36362E-04  1209   0.241E-02
   3 F= -.11676525E+04 E0= -.11676525E+04  d E =-.548217E-03  mag=     0.0000
