       N       E                     dE             d eps       ncg     rms          rms(c)
DAV:   1     0.502601998656E+04    0.50260E+04   -0.17394E+05  1836   0.920E+02
DAV:   2    -0.246643619634E+02   -0.50507E+04   -0.46152E+04  2520   0.210E+02
DAV:   3    -0.119430042752E+04   -0.11696E+04   -0.11652E+04  2196   0.112E+02
DAV:   4    -0.124166467354E+04   -0.47364E+02   -0.47111E+02  2016   0.292E+01
DAV:   5    -0.124305673472E+04   -0.13921E+01   -0.13891E+01  2484   0.441E+00    0.713E+01
RMM:   6    -0.123016361562E+04    0.12893E+02   -0.78284E+00  1584   0.319E+00    0.613E+01
RMM:   7    -0.118518292743E+04    0.44981E+02   -0.82927E+01  1585   0.102E+01    0.412E+01
RMM:   8    -0.117936856268E+04    0.58144E+01   -0.19517E+01  1592   0.508E+00    0.259E+01
RMM:   9    -0.118122564376E+04   -0.18571E+01   -0.29924E+01  1587   0.611E+00    0.115E+01
RMM:  10    -0.117851562175E+04    0.27100E+01   -0.40017E+00  1584   0.229E+00    0.496E+00
RMM:  11    -0.117834752189E+04    0.16810E+00   -0.73340E-01  1599   0.959E-01    0.303E+00
RMM:  12    -0.117826489749E+04    0.82624E-01   -0.40542E-01  1585   0.586E-01    0.104E+00
RMM:  13    -0.117826122241E+04    0.36751E-02   -0.19424E-01  1584   0.493E-01    0.622E-01
RMM:  14    -0.117825082536E+04    0.10397E-01   -0.37118E-02  1585   0.214E-01    0.234E-01
RMM:  15    -0.117825020593E+04    0.61944E-03   -0.31365E-03  1686   0.593E-02    0.224E-01
RMM:  16    -0.117825054498E+04   -0.33905E-03   -0.10318E-03  1459   0.329E-02    0.163E-01
RMM:  17    -0.117825114741E+04   -0.60243E-03   -0.15907E-03  1579   0.406E-02    0.183E-01
RMM:  18    -0.117825024136E+04    0.90605E-03   -0.39009E-03  1588   0.692E-02    0.420E-02
RMM:  19    -0.117825023985E+04    0.15138E-05   -0.12444E-04  1056   0.138E-02
   1 F= -.11853790E+04 E0= -.11853790E+04  d E =-.118538E+04  mag=     0.0011
       N       E                     dE             d eps       ncg     rms          rms(c)
DAV:   1    -0.117824843697E+04    0.18044E-02   -0.10750E+00  1728   0.132E+00    0.106E+00
RMM:   2    -0.117825070446E+04   -0.22675E-02   -0.33757E-02  1607   0.192E-01    0.106E+00
RMM:   3    -0.117825017209E+04    0.53237E-03   -0.14698E-03  1409   0.405E-02    0.102E+00
RMM:   4    -0.117824934147E+04    0.83062E-03   -0.83812E-03  1584   0.863E-02    0.226E-01
RMM:   5    -0.117824940147E+04   -0.59997E-04   -0.40983E-04  1207   0.222E-02
   2 F= -.11853788E+04 E0= -.11853788E+04  d E =0.222336E-03  mag=     0.0005
       N       E                     dE             d eps       ncg     rms          rms(c)
DAV:   1    -0.117825118577E+04   -0.18443E-02   -0.22833E-01  1836   0.619E-01    0.438E-01
RMM:   2    -0.117825156364E+04   -0.37787E-03   -0.63209E-03  1590   0.800E-02    0.430E-01
RMM:   3    -0.117825141683E+04    0.14681E-03   -0.25603E-04  1076   0.173E-02    0.386E-01
RMM:   4    -0.117825137364E+04    0.43186E-04   -0.13283E-03  1565   0.345E-02    0.773E-02
RMM:   5    -0.117825131697E+04    0.56675E-04   -0.53816E-05  1011   0.839E-03
   3 F= -.11853804E+04 E0= -.11853804E+04  d E =-.139612E-02  mag=     0.0001
       N       E                     dE             d eps       ncg     rms          rms(c)
DAV:   1    -0.117825255501E+04   -0.11814E-02   -0.18598E-01  1656   0.636E-01    0.348E-01
RMM:   2    -0.117825283260E+04   -0.27759E-03   -0.50123E-03  1602   0.855E-02    0.330E-01
RMM:   3    -0.117825260781E+04    0.22478E-03   -0.27879E-04  1114   0.217E-02    0.266E-01
RMM:   4    -0.117825258030E+04    0.27512E-04   -0.18687E-03  1584   0.446E-02    0.644E-02
RMM:   5    -0.117825249593E+04    0.84370E-04   -0.64439E-05  1008   0.935E-03
   4 F= -.11853820E+04 E0= -.11853820E+04  d E =-.160087E-02  mag=     0.0000
       N       E                     dE             d eps       ncg     rms          rms(c)
DAV:   1    -0.117825256865E+04    0.11649E-04   -0.36446E-02  1728   0.279E-01    0.170E-01
RMM:   2    -0.117825262120E+04   -0.52544E-04   -0.10115E-03  1370   0.409E-02    0.164E-01
RMM:   3    -0.117825258347E+04    0.37729E-04   -0.64261E-05  1002   0.116E-02
   5 F= -.11853823E+04 E0= -.11853823E+04  d E =-.187028E-02  mag=    -0.0000
       N       E                     dE             d eps       ncg     rms          rms(c)
DAV:   1    -0.117825334296E+04   -0.72176E-03   -0.81502E-02  1728   0.432E-01    0.171E-01
RMM:   2    -0.117825351574E+04   -0.17278E-03   -0.24800E-03  1558   0.673E-02    0.175E-01
RMM:   3    -0.117825349803E+04    0.17717E-04   -0.89339E-05  1014   0.133E-02
   6 F= -.11853832E+04 E0= -.11853832E+04  d E =-.901379E-03  mag=    -0.0000
       N       E                     dE             d eps       ncg     rms          rms(c)
DAV:   1    -0.117825356544E+04   -0.49701E-04   -0.94242E-03  1764   0.148E-01    0.233E-01
RMM:   2    -0.117825350116E+04    0.64286E-04   -0.29642E-04  1063   0.240E-02
   7 F= -.11853832E+04 E0= -.11853832E+04  d E =-.900237E-03  mag=     0.0000
