       N       E                     dE             d eps       ncg     rms          rms(c)
DAV:   1     0.515712486444E+04    0.51571E+04   -0.17503E+05  1800   0.933E+02
DAV:   2     0.207259736032E+02   -0.51364E+04   -0.47156E+04  2520   0.216E+02
DAV:   3    -0.118141310290E+04   -0.12021E+04   -0.11960E+04  2052   0.115E+02
DAV:   4    -0.123315577221E+04   -0.51743E+02   -0.51462E+02  2016   0.320E+01
DAV:   5    -0.123445408076E+04   -0.12983E+01   -0.12955E+01  2304   0.464E+00    0.609E+01
RMM:   6    -0.122329224740E+04    0.11162E+02   -0.67323E+00  1584   0.312E+00    0.496E+01
RMM:   7    -0.118373398648E+04    0.39558E+02   -0.59382E+01  1584   0.912E+00    0.292E+01
RMM:   8    -0.117313904757E+04    0.10595E+02   -0.48468E+01  1584   0.808E+00    0.139E+01
RMM:   9    -0.117445675392E+04   -0.13177E+01   -0.78919E+00  1589   0.340E+00    0.102E+01
RMM:  10    -0.117320175149E+04    0.12550E+01   -0.28719E+00  1585   0.197E+00    0.628E+00
RMM:  11    -0.117318378312E+04    0.17968E-01   -0.35424E-01  1627   0.645E-01    0.437E+00
RMM:  12    -0.117296500078E+04    0.21878E+00   -0.40441E-01  1585   0.735E-01    0.233E+00
RMM:  13    -0.117296805876E+04   -0.30580E-02   -0.14783E-01  1588   0.489E-01    0.186E+00
RMM:  14    -0.117294638284E+04    0.21676E-01   -0.54915E-02  1624   0.285E-01    0.969E-01
RMM:  15    -0.117293706489E+04    0.93179E-02   -0.19488E-02  1640   0.122E-01    0.468E-01
RMM:  16    -0.117293942194E+04   -0.23570E-02   -0.13551E-03  1361   0.488E-02    0.494E-01
RMM:  17    -0.117293754713E+04    0.18748E-02   -0.39345E-03  1582   0.706E-02    0.195E-01
RMM:  18    -0.117293849739E+04   -0.95026E-03   -0.36131E-03  1589   0.589E-02    0.268E-01
RMM:  19    -0.117293864217E+04   -0.14478E-03   -0.16841E-03  1204   0.363E-02    0.927E-02
RMM:  20    -0.117293851320E+04    0.12898E-03   -0.44716E-04  1167   0.246E-02    0.109E-01
RMM:  21    -0.117293867848E+04   -0.16529E-03   -0.32553E-04  1058   0.164E-02    0.336E-02
RMM:  22    -0.117293870427E+04   -0.25791E-04   -0.63958E-05  1015   0.996E-03
   1 F= -.11800370E+04 E0= -.11800337E+04  d E =-.118004E+04  mag=     0.9129
       N       E                     dE             d eps       ncg     rms          rms(c)
DAV:   1    -0.117293697147E+04    0.17070E-02   -0.49374E-01  1656   0.114E+00    0.208E-01
RMM:   2    -0.117293792306E+04   -0.95160E-03   -0.15207E-02  1587   0.176E-01    0.197E-01
RMM:   3    -0.117293765173E+04    0.27134E-03   -0.84271E-04  1473   0.459E-02    0.182E-01
RMM:   4    -0.117293679226E+04    0.85947E-03   -0.25023E-03  1584   0.573E-02    0.753E-02
RMM:   5    -0.117293679390E+04   -0.16419E-05   -0.45718E-04  1419   0.270E-02
   2 F= -.11800356E+04 E0= -.11800323E+04  d E =0.140147E-02  mag=     0.9115
       N       E                     dE             d eps       ncg     rms          rms(c)
DAV:   1    -0.117293951461E+04   -0.27224E-02   -0.20037E-01  1692   0.722E-01    0.129E-01
RMM:   2    -0.117293977503E+04   -0.26042E-03   -0.51701E-03  1584   0.107E-01    0.120E-01
RMM:   3    -0.117293961149E+04    0.16354E-03   -0.24906E-04  1137   0.259E-02    0.108E-01
RMM:   4    -0.117293923946E+04    0.37203E-03   -0.10519E-03  1576   0.376E-02    0.439E-02
RMM:   5    -0.117293922905E+04    0.10410E-04   -0.14365E-04  1013   0.172E-02
   3 F= -.11800377E+04 E0= -.11800344E+04  d E =-.709269E-03  mag=     0.9129
