       N       E                     dE             d eps       ncg     rms          rms(c)
DAV:   1     0.485324889871E+04    0.48532E+04   -0.17119E+05  1872   0.909E+02
DAV:   2    -0.750405192167E+02   -0.49283E+04   -0.44916E+04  2520   0.206E+02
DAV:   3    -0.119726889091E+04   -0.11222E+04   -0.11172E+04  2088   0.109E+02
DAV:   4    -0.124165657409E+04   -0.44388E+02   -0.44170E+02  1980   0.287E+01
DAV:   5    -0.124285110444E+04   -0.11945E+01   -0.11919E+01  2304   0.453E+00    0.669E+01
RMM:   6    -0.122422730379E+04    0.18624E+02   -0.26832E+01  1584   0.488E+00    0.539E+01
RMM:   7    -0.120821273984E+04    0.16015E+02   -0.91681E+00  1584   0.339E+00    0.414E+01
RMM:   8    -0.118367514553E+04    0.24538E+02   -0.28666E+01  1584   0.612E+00    0.274E+01
RMM:   9    -0.117264289539E+04    0.11032E+02   -0.20966E+01  1584   0.521E+00    0.189E+01
RMM:  10    -0.117335553581E+04   -0.71264E+00   -0.16963E+01  1584   0.465E+00    0.921E+00
RMM:  11    -0.117306799428E+04    0.28754E+00   -0.83663E-01  1634   0.113E+00    0.644E+00
RMM:  12    -0.117268529247E+04    0.38270E+00   -0.24914E-01  1584   0.560E-01    0.464E+00
RMM:  13    -0.117238136463E+04    0.30393E+00   -0.12172E+00  1584   0.123E+00    0.117E+00
RMM:  14    -0.117237689899E+04    0.44656E-02   -0.37985E-02  1619   0.242E-01    0.440E-01
RMM:  15    -0.117237620319E+04    0.69580E-03   -0.79336E-03  1584   0.104E-01    0.281E-01
RMM:  16    -0.117237611313E+04    0.90057E-04   -0.40139E-03  1590   0.735E-02    0.145E-01
RMM:  17    -0.117237587381E+04    0.23931E-03   -0.52372E-04  1301   0.258E-02    0.106E-01
RMM:  18    -0.117237590328E+04   -0.29469E-04   -0.31004E-04  1203   0.204E-02
   1 F= -.11797436E+04 E0= -.11797435E+04  d E =-.117974E+04  mag=     0.9995
       N       E                     dE             d eps       ncg     rms          rms(c)
DAV:   1    -0.117237527988E+04    0.59393E-03   -0.65867E-01  1692   0.118E+00    0.288E-01
RMM:   2    -0.117237646792E+04   -0.11880E-02   -0.15609E-02  1584   0.166E-01    0.255E-01
RMM:   3    -0.117237619136E+04    0.27656E-03   -0.93983E-04  1499   0.375E-02    0.215E-01
RMM:   4    -0.117237575498E+04    0.43638E-03   -0.20853E-03  1584   0.508E-02    0.797E-02
RMM:   5    -0.117237576246E+04   -0.74748E-05   -0.10882E-04  1056   0.142E-02
   2 F= -.11797438E+04 E0= -.11797438E+04  d E =-.235569E-03  mag=     0.9993
       N       E                     dE             d eps       ncg     rms          rms(c)
DAV:   1    -0.117237705570E+04   -0.13007E-02   -0.15316E-01  1620   0.565E-01    0.138E-01
RMM:   2    -0.117237722820E+04   -0.17250E-03   -0.29938E-03  1584   0.755E-02    0.120E-01
RMM:   3    -0.117237709633E+04    0.13187E-03   -0.17800E-04  1072   0.179E-02    0.946E-02
RMM:   4    -0.117237697405E+04    0.12228E-03   -0.71230E-04  1539   0.298E-02    0.345E-02
RMM:   5    -0.117237697372E+04    0.33151E-06   -0.23572E-05   999   0.735E-03
   3 F= -.11797448E+04 E0= -.11797448E+04  d E =-.126403E-02  mag=     0.9994
       N       E                     dE             d eps       ncg     rms          rms(c)
DAV:   1    -0.117237759020E+04   -0.61615E-03   -0.47493E-01  1620   0.959E-01    0.224E-01
RMM:   2    -0.117237816890E+04   -0.57870E-03   -0.84024E-03  1584   0.122E-01    0.189E-01
RMM:   3    -0.117237793739E+04    0.23151E-03   -0.43482E-04  1235   0.272E-02    0.146E-01
RMM:   4    -0.117237779061E+04    0.14678E-03   -0.11675E-03  1562   0.378E-02    0.549E-02
RMM:   5    -0.117237778838E+04    0.22314E-05   -0.47161E-05  1007   0.970E-03
   4 F= -.11797456E+04 E0= -.11797456E+04  d E =-.800323E-03  mag=     0.9993
       N       E                     dE             d eps       ncg     rms          rms(c)
DAV:   1    -0.117237793636E+04   -0.14575E-03   -0.36041E-02  1728   0.264E-01    0.622E-02
RMM:   2    -0.117237796417E+04   -0.27811E-04   -0.62161E-04  1247   0.331E-02
   5 F= -.11797458E+04 E0= -.11797458E+04  d E =-.979667E-03  mag=     0.9993
