       N       E                     dE             d eps       ncg     rms          rms(c)
DAV:   1     0.522438786086E+04    0.52244E+04   -0.17742E+05  1728   0.998E+02
DAV:   2     0.112316756395E+03   -0.51121E+04   -0.46724E+04  2296   0.234E+02
DAV:   3    -0.118009821876E+04   -0.12924E+04   -0.12734E+04  1928   0.126E+02
DAV:   4    -0.124394122877E+04   -0.63843E+02   -0.62914E+02  1872   0.357E+01
DAV:   5    -0.124562838950E+04   -0.16872E+01   -0.16695E+01  2080   0.569E+00    0.101E+02
RMM:   6    -0.124192584522E+04    0.37025E+01   -0.18173E+02  1920   0.215E+01    0.971E+01
RMM:   7    -0.122465633940E+04    0.17270E+02   -0.18303E+01  1532   0.738E+00    0.686E+01
RMM:   8    -0.119497317345E+04    0.29683E+02   -0.22988E+01  1475   0.907E+00    0.396E+01
RMM:   9    -0.119166104049E+04    0.33121E+01   -0.56363E+01  1627   0.102E+01    0.875E+01
RMM:  10    -0.116899768722E+04    0.22663E+02   -0.38155E+01  1663   0.132E+01    0.219E+01
RMM:  11    -0.117008054569E+04   -0.10829E+01   -0.91566E+00  1491   0.452E+00    0.143E+01
RMM:  12    -0.116999405195E+04    0.86494E-01   -0.56864E+00  1472   0.353E+00    0.114E+01
RMM:  13    -0.116684125918E+04    0.31528E+01   -0.50163E+00  1580   0.313E+00    0.100E+01
RMM:  14    -0.116679795692E+04    0.43302E-01   -0.52341E-01  1566   0.107E+00    0.883E+00
RMM:  15    -0.116691260708E+04   -0.11465E+00   -0.34257E-01  1510   0.105E+00    0.498E+00
RMM:  16    -0.116670376483E+04    0.20884E+00   -0.32702E-01  1567   0.788E-01    0.319E+00
RMM:  17    -0.116672958396E+04   -0.25819E-01   -0.35351E-02  1497   0.361E-01    0.263E+00
RMM:  18    -0.116666826621E+04    0.61318E-01   -0.75673E-02  1705   0.399E-01    0.170E+00
RMM:  19    -0.116665882156E+04    0.94446E-02   -0.15657E-02  1458   0.178E-01    0.107E+00
RMM:  20    -0.116665261012E+04    0.62114E-02   -0.78010E-03  1303   0.120E-01    0.970E-01
RMM:  21    -0.116664514566E+04    0.74645E-02   -0.16549E-02  1533   0.142E-01    0.652E-01
RMM:  22    -0.116664404922E+04    0.10964E-02   -0.56891E-03  1269   0.944E-02    0.547E-01
RMM:  23    -0.116664323045E+04    0.81878E-03   -0.12920E-03   964   0.719E-02
   1 F= -.11736973E+04 E0= -.11736973E+04  d E =-.117370E+04  mag=     0.0195
