       N       E                     dE             d eps       ncg     rms          rms(c)
DAV:   1     0.492224586988E+04    0.49222E+04   -0.16995E+05  1800   0.904E+02
DAV:   2    -0.497791155365E+02   -0.49720E+04   -0.45101E+04  2520   0.209E+02
DAV:   3    -0.118363633743E+04   -0.11339E+04   -0.11277E+04  2196   0.109E+02
DAV:   4    -0.122991296360E+04   -0.46277E+02   -0.46039E+02  2016   0.287E+01
DAV:   5    -0.123132764952E+04   -0.14147E+01   -0.14112E+01  2484   0.438E+00    0.715E+01
RMM:   6    -0.121835908235E+04    0.12969E+02   -0.73920E+00  1587   0.304E+00    0.605E+01
RMM:   7    -0.117065722577E+04    0.47702E+02   -0.80768E+01  1596   0.994E+00    0.350E+01
RMM:   8    -0.116464050742E+04    0.60167E+01   -0.43790E+01  1605   0.733E+00    0.153E+01
RMM:   9    -0.116631969255E+04   -0.16792E+01   -0.71047E+00  1611   0.308E+00    0.101E+01
RMM:  10    -0.116539005402E+04    0.92964E+00   -0.21453E+00  1584   0.147E+00    0.520E+00
RMM:  11    -0.116523906744E+04    0.15099E+00   -0.46199E-01  1616   0.724E-01    0.272E+00
RMM:  12    -0.116517564348E+04    0.63424E-01   -0.29317E-01  1587   0.585E-01    0.134E+00
RMM:  13    -0.116531642745E+04   -0.14078E+00   -0.10940E-01  1598   0.352E-01    0.593E-01
RMM:  14    -0.116534586987E+04   -0.29442E-01   -0.13974E-02  1652   0.108E-01    0.593E-01
RMM:  15    -0.116534747959E+04   -0.16097E-02   -0.18858E-03  1373   0.295E-02    0.603E-01
RMM:  16    -0.116535406096E+04   -0.65814E-02   -0.70076E-04  1224   0.242E-02    0.593E-01
RMM:  17    -0.116534297024E+04    0.11091E-01   -0.12832E-02  1606   0.832E-02    0.465E-01
RMM:  18    -0.116532972160E+04    0.13249E-01   -0.46816E-02  1637   0.138E-01    0.568E-01
RMM:  19    -0.116534606960E+04   -0.16348E-01   -0.62385E-03  1327   0.512E-02    0.449E-01
RMM:  20    -0.116531081172E+04    0.35258E-01   -0.25199E-02  1385   0.874E-02    0.394E-01
RMM:  21    -0.116529213768E+04    0.18674E-01   -0.11555E-02  1247   0.586E-02    0.371E-01
RMM:  22    -0.116522276004E+04    0.69378E-01   -0.38447E-02  1409   0.113E-01    0.360E-01
RMM:  23    -0.116515171971E+04    0.71040E-01   -0.20755E-02  1302   0.835E-02    0.403E-01
RMM:  24    -0.116514460184E+04    0.71179E-02   -0.17753E-03  1161   0.216E-02    0.406E-01
RMM:  25    -0.116514433325E+04    0.26859E-03   -0.15643E-04  1086   0.991E-03    0.409E-01
RMM:  26    -0.116511984516E+04    0.24488E-01   -0.22036E-03  1264   0.356E-02    0.464E-01
RMM:  27    -0.116512647327E+04   -0.66281E-02   -0.33052E-04  1130   0.183E-02    0.477E-01
RMM:  28    -0.116509907624E+04    0.27397E-01   -0.28511E-03  1177   0.377E-02    0.519E-01
RMM:  29    -0.116511981543E+04   -0.20739E-01   -0.90897E-04  1080   0.204E-02    0.497E-01
RMM:  30    -0.116513595145E+04   -0.16136E-01   -0.88642E-04  1106   0.226E-02    0.458E-01
RMM:  31    -0.116531253643E+04   -0.17658E+00   -0.11181E-01  1588   0.174E-01    0.357E-01
RMM:  32    -0.116537734278E+04   -0.64806E-01   -0.22420E-01  1508   0.148E-01    0.333E-01
RMM:  33    -0.116541804202E+04   -0.40699E-01   -0.18743E-01  1243   0.832E-02    0.109E+00
RMM:  34    -0.116535167257E+04    0.66369E-01   -0.10382E-01  1261   0.137E-01    0.231E-01
RMM:  35    -0.116532953537E+04    0.22137E-01   -0.37362E-02  1234   0.856E-02    0.221E-01
RMM:  36    -0.116531866625E+04    0.10869E-01   -0.85840E-03  1143   0.367E-02    0.276E-01
RMM:  37    -0.116534102774E+04   -0.22361E-01   -0.14466E-02  1223   0.607E-02    0.304E-01
RMM:  38    -0.116535313433E+04   -0.12107E-01   -0.13475E-02  1201   0.507E-02    0.351E-01
RMM:  39    -0.116535543765E+04   -0.23033E-02   -0.37136E-03  1096   0.245E-02    0.372E-01
RMM:  40    -0.116535415189E+04    0.12858E-02   -0.53473E-04   918   0.908E-03    0.358E-01
RMM:  41    -0.116535530703E+04   -0.11551E-02   -0.22087E-04   796   0.767E-03    0.362E-01
RMM:  42    -0.116535594730E+04   -0.64027E-03   -0.99889E-05   704   0.542E-03    0.365E-01
RMM:  43    -0.116535464721E+04    0.13001E-02   -0.24518E-04   643   0.830E-03    0.358E-01
RMM:  44    -0.116535544689E+04   -0.79968E-03   -0.11967E-04   661   0.684E-03    0.366E-01
RMM:  45    -0.116534420633E+04    0.11241E-01   -0.38929E-03  1134   0.332E-02    0.255E-01
RMM:  46    -0.116534414696E+04    0.59373E-04   -0.86405E-04  1133   0.193E-02
   1 F= -.11724434E+04 E0= -.11724359E+04  d E =-.117244E+04  mag=     0.2774
       N       E                     dE             d eps       ncg     rms          rms(c)
DAV:   1    -0.116519314590E+04    0.15106E+00   -0.25716E+00  1692   0.248E+00    0.118E+00
RMM:   2    -0.116527512503E+04   -0.81979E-01   -0.90399E-02  1596   0.389E-01    0.107E+00
RMM:   3    -0.116537268514E+04   -0.97560E-01   -0.13936E-01  1631   0.206E-01    0.752E-01
RMM:   4    -0.116538204064E+04   -0.93555E-02   -0.65808E-02  1598   0.132E-01    0.756E-01
RMM:   5    -0.116537440446E+04    0.76362E-02   -0.46197E-03  1135   0.301E-02    0.792E-01
RMM:   6    -0.116539616010E+04   -0.21756E-01   -0.12551E-01  1608   0.139E-01    0.847E-01
RMM:   7    -0.116538119706E+04    0.14963E-01   -0.40720E-02  1646   0.776E-02    0.113E+00
RMM:   8    -0.116538580156E+04   -0.46045E-02   -0.81976E-03  1201   0.228E-02    0.126E+00
RMM:   9    -0.116543132394E+04   -0.45522E-01   -0.39489E-02  1143   0.380E-02    0.351E+00
RMM:  10    -0.116542566004E+04    0.56639E-02   -0.47913E-03  1113   0.171E-02    0.335E+00
RMM:  11    -0.116536039669E+04    0.65263E-01   -0.29208E-02  1143   0.472E-02    0.773E-01
RMM:  12    -0.116544905441E+04   -0.88658E-01   -0.18589E-01  1506   0.107E-01    0.286E+00
RMM:  13    -0.116538313275E+04    0.65922E-01   -0.34415E-02  1290   0.648E-02    0.873E-01
RMM:  14    -0.116535282284E+04    0.30310E-01   -0.11400E-02  1234   0.425E-02    0.499E-01
RMM:  15    -0.116534556125E+04    0.72616E-02   -0.19276E-02  1236   0.488E-02    0.464E-01
RMM:  16    -0.116541091010E+04   -0.65349E-01   -0.39896E-02  1267   0.652E-02    0.116E+00
RMM:  17    -0.116539260147E+04    0.18309E-01   -0.82763E-03  1133   0.350E-02    0.819E-01
RMM:  18    -0.116542849114E+04   -0.35890E-01   -0.60055E-02  1092   0.517E-02    0.191E+00
RMM:  19    -0.116542050959E+04    0.79816E-02   -0.70685E-03   909   0.259E-02    0.173E+00
RMM:  20    -0.116541685989E+04    0.36497E-02   -0.18124E-02   889   0.400E-02    0.142E+00
RMM:  21    -0.116551221548E+04   -0.95356E-01   -0.42992E-01  1147   0.112E-01    0.584E+00
RMM:  22    -0.116559401364E+04   -0.81798E-01   -0.23347E-01  1095   0.626E-02    0.120E+01
RMM:  23    -0.116543741293E+04    0.15660E+00   -0.49223E-02  1132   0.622E-02    0.358E+00
RMM:  24    -0.116577862497E+04   -0.34121E+00   -0.86919E-01  1110   0.108E-01    0.140E+01
RMM:  25    -0.116570326166E+04    0.75363E-01   -0.28281E-01  1168   0.100E-01    0.137E+01
RMM:  26    -0.116545995411E+04    0.24331E+00   -0.24406E-01  1108   0.829E-02    0.483E+00
RMM:  27    -0.116552426718E+04   -0.64313E-01   -0.11675E-01  1147   0.708E-02    0.990E+00
RMM:  28    -0.116550743654E+04    0.16831E-01   -0.12564E-02   919   0.292E-02    0.977E+00
RMM:  29    -0.116545139879E+04    0.56038E-01   -0.88036E-02   911   0.510E-02    0.564E+00
RMM:  30    -0.116541327578E+04    0.38123E-01   -0.49562E-02  1071   0.497E-02    0.354E+00
RMM:  31    -0.116536754989E+04    0.45726E-01   -0.34285E-02  1122   0.484E-02    0.149E+00
RMM:  32    -0.116538013243E+04   -0.12583E-01   -0.81122E-03  1053   0.258E-02    0.206E+00
RMM:  33    -0.116536608331E+04    0.14049E-01   -0.75637E-03   847   0.207E-02    0.157E+00
RMM:  34    -0.116535298925E+04    0.13094E-01   -0.10328E-02  1002   0.264E-02    0.127E+00
RMM:  35    -0.116534539831E+04    0.75909E-02   -0.10400E-02  1078   0.280E-02    0.110E+00
RMM:  36    -0.116534459410E+04    0.80422E-03   -0.41470E-03  1026   0.170E-02    0.103E+00
RMM:  37    -0.116534192375E+04    0.26703E-02   -0.20480E-03   812   0.111E-02    0.970E-01
RMM:  38    -0.116533739334E+04    0.45304E-02   -0.31311E-03   885   0.168E-02    0.883E-01
RMM:  39    -0.116533607215E+04    0.13212E-02   -0.18243E-03   942   0.137E-02    0.834E-01
RMM:  40    -0.116533363326E+04    0.24389E-02   -0.17534E-03   849   0.140E-02    0.790E-01
RMM:  41    -0.116533315917E+04    0.47409E-03   -0.31228E-04   635   0.553E-03    0.785E-01
RMM:  42    -0.116533348222E+04   -0.32305E-03   -0.14484E-04   600   0.522E-03    0.775E-01
RMM:  43    -0.116533088083E+04    0.26014E-02   -0.58977E-04   735   0.914E-03    0.769E-01
RMM:  44    -0.116532619615E+04    0.46847E-02   -0.68886E-04   744   0.105E-02    0.763E-01
RMM:  45    -0.116532286228E+04    0.33339E-02   -0.11367E-03   790   0.139E-02    0.780E-01
RMM:  46    -0.116532064652E+04    0.22158E-02   -0.55775E-03   990   0.294E-02    0.821E-01
RMM:  47    -0.116531785029E+04    0.27962E-02   -0.36144E-03   970   0.234E-02    0.854E-01
RMM:  48    -0.116531749133E+04    0.35896E-03   -0.23466E-03   914   0.182E-02    0.885E-01
RMM:  49    -0.116531669568E+04    0.79565E-03   -0.11017E-03   841   0.129E-02    0.896E-01
RMM:  50    -0.116531754201E+04   -0.84633E-03   -0.84213E-04   752   0.106E-02    0.900E-01
RMM:  51    -0.116531753409E+04    0.79169E-05   -0.86705E-05   567   0.499E-03
   2 F= -.11724180E+04 E0= -.11724140E+04  d E =0.253541E-01  mag=     0.1168
       N       E                     dE             d eps       ncg     rms          rms(c)
DAV:   1    -0.116519981124E+04    0.11773E+00   -0.11516E+00  1656   0.162E+00    0.103E+00
RMM:   2    -0.116529708631E+04   -0.97275E-01   -0.41519E-02  1597   0.257E-01    0.787E-01
RMM:   3    -0.116541948803E+04   -0.12240E+00   -0.18033E-01  1660   0.121E-01    0.171E+00
RMM:   4    -0.116536422715E+04    0.55261E-01   -0.14850E-02  1201   0.519E-02    0.844E-01
RMM:   5    -0.116539254894E+04   -0.28322E-01   -0.64597E-03  1537   0.532E-02    0.895E-01
RMM:   6    -0.116532382761E+04    0.68721E-01   -0.16249E-01  1608   0.201E-01    0.225E+00
RMM:   7    -0.116530418387E+04    0.19644E-01   -0.27447E-02  1439   0.806E-02    0.154E+00
RMM:   8    -0.116527678488E+04    0.27399E-01   -0.11257E-02  1189   0.450E-02    0.156E+00
RMM:   9    -0.116515500103E+04    0.12178E+00   -0.50520E-02  1401   0.114E-01    0.177E+00
RMM:  10    -0.116497819093E+04    0.17681E+00   -0.40064E-02  1446   0.112E-01    0.167E+00
RMM:  11    -0.116472067880E+04    0.25751E+00   -0.42832E-02  1439   0.123E-01    0.158E+00
RMM:  12    -0.116475434768E+04   -0.33669E-01   -0.17382E-03  1173   0.232E-02    0.160E+00
RMM:  13    -0.116473567377E+04    0.18674E-01   -0.80690E-04  1162   0.212E-02    0.159E+00
RMM:  14    -0.116446512763E+04    0.27055E+00   -0.26315E-02  1538   0.107E-01    0.155E+00
RMM:  15    -0.116448709527E+04   -0.21968E-01   -0.82532E-04  1145   0.179E-02    0.158E+00
RMM:  16    -0.116448414645E+04    0.29488E-02   -0.68096E-05   961   0.762E-03    0.158E+00
RMM:  17    -0.116449028331E+04   -0.61369E-02   -0.28527E-05   826   0.529E-03    0.158E+00
RMM:  18    -0.116473540253E+04   -0.24512E+00   -0.20873E-02  1439   0.893E-02    0.154E+00
RMM:  19    -0.116540420620E+04   -0.66880E+00   -0.80246E-01  1693   0.283E-01    0.194E+00
RMM:  20    -0.116669569478E+04   -0.12915E+01   -0.16146E+00  1537   0.113E-01    0.125E+01
RMM:  21    -0.116645939077E+04    0.23630E+00   -0.34682E-01  1244   0.960E-02    0.127E+01
RMM:  22    -0.116580788985E+04    0.65150E+00   -0.93735E-01  1196   0.139E-01    0.128E+01
RMM:  23    -0.116587984746E+04   -0.71958E-01   -0.33105E-02  1009   0.324E-02    0.134E+01
RMM:  24    -0.116596343449E+04   -0.83587E-01   -0.62784E-02   885   0.465E-02    0.135E+01
RMM:  25    -0.116576477993E+04    0.19865E+00   -0.16169E-01  1004   0.530E-02    0.132E+01
RMM:  26    -0.116587146833E+04   -0.10669E+00   -0.25187E-02   779   0.269E-02    0.135E+01
RMM:  27    -0.116574253706E+04    0.12893E+00   -0.61541E-02  1039   0.374E-02    0.132E+01
RMM:  28    -0.116583423226E+04   -0.91695E-01   -0.44401E-02   776   0.421E-02    0.135E+01
RMM:  29    -0.116583951660E+04   -0.52843E-02   -0.71719E-03   680   0.191E-02    0.134E+01
RMM:  30    -0.116581094888E+04    0.28568E-01   -0.90423E-03   658   0.198E-02    0.134E+01
RMM:  31    -0.116599152110E+04   -0.18057E+00   -0.12923E-01   878   0.520E-02    0.134E+01
RMM:  32    -0.116588807141E+04    0.10345E+00   -0.39841E-02   789   0.431E-02    0.134E+01
RMM:  33    -0.116578187884E+04    0.10619E+00   -0.85283E-02   739   0.555E-02    0.133E+01
RMM:  34    -0.116593481799E+04   -0.15294E+00   -0.72596E-02   718   0.447E-02    0.134E+01
RMM:  35    -0.116585926344E+04    0.75555E-01   -0.99055E-03   624   0.179E-02    0.134E+01
RMM:  36    -0.116591702354E+04   -0.57760E-01   -0.12442E-02   651   0.244E-02    0.134E+01
RMM:  37    -0.116579990089E+04    0.11712E+00   -0.54287E-02   971   0.362E-02    0.133E+01
RMM:  38    -0.116598763849E+04   -0.18774E+00   -0.10961E-01   873   0.510E-02    0.134E+01
RMM:  39    -0.116592264209E+04    0.64996E-01   -0.58525E-03   646   0.157E-02    0.133E+01
RMM:  40    -0.116602859761E+04   -0.10596E+00   -0.38284E-02   989   0.357E-02    0.133E+01
RMM:  41    -0.116596736437E+04    0.61233E-01   -0.77308E-03   636   0.172E-02    0.133E+01
RMM:  42    -0.116615445448E+04   -0.18709E+00   -0.97683E-02  1146   0.637E-02    0.133E+01
RMM:  43    -0.116610071561E+04    0.53739E-01   -0.77182E-03   858   0.204E-02    0.133E+01
RMM:  44    -0.116610410539E+04   -0.33898E-02   -0.94106E-04   618   0.792E-03    0.133E+01
RMM:  45    -0.116611032127E+04   -0.62159E-02   -0.13639E-02   807   0.300E-02    0.133E+01
RMM:  46    -0.116611030818E+04    0.13093E-04   -0.36423E-04   484   0.578E-03
   3 F= -.11732100E+04 E0= -.11732100E+04  d E =-.766582E+00  mag=     0.2166
       N       E                     dE             d eps       ncg     rms          rms(c)
DAV:   1    -0.116527995803E+04    0.83036E+00   -0.36423E+01  1692   0.128E+00    0.787E-01
RMM:   2    -0.116536833086E+04   -0.88373E-01   -0.11234E-01  1611   0.177E-01    0.354E-01
RMM:   3    -0.116541330893E+04   -0.44978E-01   -0.69420E-02  1309   0.762E-02    0.725E-01
RMM:   4    -0.116540735943E+04    0.59495E-02   -0.29302E-03  1115   0.199E-02    0.765E-01
RMM:   5    -0.116544540607E+04   -0.38047E-01   -0.61772E-02  1150   0.485E-02    0.202E+00
RMM:   6    -0.116542502741E+04    0.20379E-01   -0.44202E-03   998   0.208E-02    0.125E+00
RMM:   7    -0.116542363923E+04    0.13882E-02   -0.22233E-04   767   0.622E-03    0.120E+00
RMM:   8    -0.116540472772E+04    0.18912E-01   -0.15030E-02  1087   0.374E-02    0.658E-01
RMM:   9    -0.116552526551E+04   -0.12054E+00   -0.43341E-01  1395   0.124E-01    0.609E+00
RMM:  10    -0.116560315659E+04   -0.77891E-01   -0.20275E-01  1125   0.625E-02    0.120E+01
RMM:  11    -0.116544962719E+04    0.15353E+00   -0.75709E-02  1167   0.698E-02    0.418E+00
RMM:  12    -0.116550340045E+04   -0.53773E-01   -0.50928E-02  1115   0.504E-02    0.871E+00
RMM:  13    -0.116553320128E+04   -0.29801E-01   -0.17982E-02   991   0.275E-02    0.105E+01
RMM:  14    -0.116552327702E+04    0.99243E-02   -0.27472E-03   979   0.163E-02    0.102E+01
RMM:  15    -0.116540109314E+04    0.12218E+00   -0.48087E-02   915   0.483E-02    0.142E+00
RMM:  16    -0.116542229130E+04   -0.21198E-01   -0.30237E-02  1159   0.594E-02    0.314E+00
RMM:  17    -0.116540735473E+04    0.14937E-01   -0.58349E-03   879   0.200E-02    0.238E+00
RMM:  18    -0.116537485035E+04    0.32504E-01   -0.33137E-02  1122   0.568E-02    0.128E+00
RMM:  19    -0.116534931239E+04    0.25538E-01   -0.17867E-02  1159   0.457E-02    0.106E+00
RMM:  20    -0.116532371269E+04    0.25600E-01   -0.20303E-02  1196   0.499E-02    0.995E-01
RMM:  21    -0.116530309594E+04    0.20617E-01   -0.15768E-02  1127   0.398E-02    0.956E-01
RMM:  22    -0.116524841936E+04    0.54677E-01   -0.20436E-02  1158   0.506E-02    0.831E-01
RMM:  23    -0.116522707259E+04    0.21347E-01   -0.58746E-03  1102   0.249E-02    0.801E-01
RMM:  24    -0.116521450144E+04    0.12571E-01   -0.43640E-03  1129   0.233E-02    0.746E-01
RMM:  25    -0.116521043992E+04    0.40615E-02   -0.37361E-03  1129   0.220E-02    0.696E-01
RMM:  26    -0.116521941666E+04   -0.89767E-02   -0.14091E-03  1025   0.136E-02    0.673E-01
RMM:  27    -0.116521896853E+04    0.44812E-03   -0.14502E-04   803   0.566E-03    0.682E-01
RMM:  28    -0.116521427428E+04    0.46943E-02   -0.11117E-03  1076   0.158E-02    0.645E-01
RMM:  29    -0.116521346658E+04    0.80770E-03   -0.28350E-04   836   0.845E-03    0.639E-01
RMM:  30    -0.116521147714E+04    0.19894E-02   -0.33707E-04  1015   0.106E-02    0.649E-01
RMM:  31    -0.116521242750E+04   -0.95036E-03   -0.28677E-04   917   0.914E-03    0.644E-01
RMM:  32    -0.116522024249E+04   -0.78150E-02   -0.16187E-03  1122   0.202E-02    0.669E-01
RMM:  33    -0.116521446910E+04    0.57734E-02   -0.42609E-03  1193   0.330E-02    0.668E-01
RMM:  34    -0.116520687580E+04    0.75933E-02   -0.80917E-03  1245   0.458E-02    0.691E-01
RMM:  35    -0.116520549743E+04    0.13784E-02   -0.69268E-03  1256   0.437E-02    0.724E-01
RMM:  36    -0.116519175719E+04    0.13740E-01   -0.10776E-03  1075   0.161E-02    0.658E-01
RMM:  37    -0.116521158798E+04   -0.19831E-01   -0.98213E-04  1123   0.207E-02    0.774E-01
RMM:  38    -0.116522479530E+04   -0.13207E-01   -0.19058E-03  1078   0.210E-02    0.857E-01
RMM:  39    -0.116522362923E+04    0.11661E-02   -0.11829E-04   875   0.602E-03    0.855E-01
RMM:  40    -0.116522357595E+04    0.53282E-04   -0.31696E-05   673   0.440E-03
   4 F= -.11723229E+04 E0= -.11723144E+04  d E =0.120486E+00  mag=     0.4313
