       N       E                     dE             d eps       ncg     rms          rms(c)
DAV:   1     0.490827366643E+04    0.49083E+04   -0.17397E+05  1872   0.912E+02
DAV:   2    -0.524812838593E+02   -0.49608E+04   -0.45270E+04  2520   0.208E+02
DAV:   3    -0.119185160149E+04   -0.11394E+04   -0.11334E+04  2160   0.110E+02
DAV:   4    -0.123696357830E+04   -0.45112E+02   -0.44893E+02  2052   0.288E+01
DAV:   5    -0.123811511695E+04   -0.11515E+01   -0.11491E+01  2340   0.430E+00    0.760E+01
RMM:   6    -0.122768388780E+04    0.10431E+02   -0.65256E+01  1666   0.733E+00    0.682E+01
RMM:   7    -0.121162050516E+04    0.16063E+02   -0.67971E+00  1646   0.277E+00    0.464E+01
RMM:   8    -0.119420343101E+04    0.17417E+02   -0.13087E+01  1590   0.417E+00    0.347E+01
RMM:   9    -0.117201977866E+04    0.22184E+02   -0.37969E+01  1589   0.710E+00    0.211E+01
RMM:  10    -0.117080479840E+04    0.12150E+01   -0.25923E+01  1586   0.573E+00    0.918E+00
RMM:  11    -0.117086253675E+04   -0.57738E-01   -0.12617E+00  1650   0.146E+00    0.678E+00
RMM:  12    -0.117026372425E+04    0.59881E+00   -0.10895E+00  1585   0.114E+00    0.313E+00
RMM:  13    -0.117014324950E+04    0.12047E+00   -0.24354E-01  1595   0.577E-01    0.175E+00
RMM:  14    -0.117011420387E+04    0.29046E-01   -0.11561E-01  1629   0.365E-01    0.502E-01
RMM:  15    -0.117011279992E+04    0.14039E-02   -0.19385E-02  1658   0.168E-01    0.289E-01
RMM:  16    -0.117011272532E+04    0.74605E-04   -0.25154E-03  1755   0.634E-02    0.170E-01
RMM:  17    -0.117011254893E+04    0.17639E-03   -0.20645E-03  1586   0.521E-02    0.128E-01
RMM:  18    -0.117011275759E+04   -0.20866E-03   -0.10427E-03  1595   0.393E-02    0.739E-02
RMM:  19    -0.117011283945E+04   -0.81854E-04   -0.97395E-05  1077   0.157E-02
   1 F= -.11771412E+04 E0= -.11771412E+04  d E =-.117714E+04  mag=     1.9995
       N       E                     dE             d eps       ncg     rms          rms(c)
DAV:   1    -0.117011265948E+04    0.98111E-04   -0.40155E-01  1620   0.103E+00    0.214E-01
RMM:   2    -0.117011337756E+04   -0.71808E-03   -0.13801E-02  1622   0.168E-01    0.221E-01
RMM:   3    -0.117011320227E+04    0.17529E-03   -0.90172E-04  1587   0.406E-02    0.225E-01
RMM:   4    -0.117011307389E+04    0.12838E-03   -0.90608E-05  1070   0.144E-02    0.216E-01
RMM:   5    -0.117011179801E+04    0.12759E-02   -0.29962E-03  1587   0.615E-02    0.777E-02
RMM:   6    -0.117011176367E+04    0.34334E-04   -0.71920E-04  1597   0.322E-02
   2 F= -.11771404E+04 E0= -.11771404E+04  d E =0.794304E-03  mag=     2.0001
       N       E                     dE             d eps       ncg     rms          rms(c)
DAV:   1    -0.117011363607E+04   -0.18381E-02   -0.13619E-01  1584   0.596E-01    0.118E-01
RMM:   2    -0.117011380628E+04   -0.17021E-03   -0.38495E-03  1622   0.925E-02    0.126E-01
RMM:   3    -0.117011375668E+04    0.49596E-04   -0.22126E-04  1152   0.215E-02
   3 F= -.11771422E+04 E0= -.11771422E+04  d E =-.103443E-02  mag=     2.0000
       N       E                     dE             d eps       ncg     rms          rms(c)
DAV:   1    -0.117011586933E+04   -0.20630E-02   -0.18452E-01  1764   0.684E-01    0.285E-01
RMM:   2    -0.117011515210E+04    0.71722E-03   -0.48104E-03  1619   0.105E-01    0.260E-01
RMM:   3    -0.117011306478E+04    0.20873E-02   -0.20408E-03  1594   0.513E-02    0.171E-01
RMM:   4    -0.117011215930E+04    0.90548E-03   -0.44951E-03  1584   0.741E-02    0.752E-02
RMM:   5    -0.117011209165E+04    0.67650E-04   -0.72881E-05  1040   0.142E-02
   4 F= -.11771404E+04 E0= -.11771404E+04  d E =0.181618E-02  mag=     2.0000
       N       E                     dE             d eps       ncg     rms          rms(c)
DAV:   1    -0.117011371449E+04   -0.15552E-02   -0.57427E-02  1692   0.381E-01    0.898E-02
RMM:   2    -0.117011368509E+04    0.29402E-04   -0.12818E-03  1616   0.550E-02    0.813E-02
RMM:   3    -0.117011349513E+04    0.18996E-03   -0.11847E-04  1005   0.156E-02    0.622E-02
RMM:   4    -0.117011332527E+04    0.16986E-03   -0.67772E-04  1550   0.292E-02    0.206E-02
RMM:   5    -0.117011332755E+04   -0.22748E-05   -0.20005E-05   993   0.702E-03
   5 F= -.11771417E+04 E0= -.11771417E+04  d E =0.497006E-03  mag=     2.0000
