       N       E                     dE             d eps       ncg     rms          rms(c)
DAV:   1     0.497641114497E+04    0.49764E+04   -0.17700E+05  1872   0.925E+02
DAV:   2    -0.386651662584E+02   -0.50151E+04   -0.45939E+04  2520   0.209E+02
DAV:   3    -0.119008067051E+04   -0.11514E+04   -0.11457E+04  2124   0.111E+02
DAV:   4    -0.123646553038E+04   -0.46385E+02   -0.46103E+02  1980   0.289E+01
DAV:   5    -0.123764829857E+04   -0.11828E+01   -0.11785E+01  2268   0.428E+00    0.701E+01
RMM:   6    -0.122417183667E+04    0.13476E+02   -0.45747E+01  1601   0.613E+00    0.772E+01
RMM:   7    -0.121409613643E+04    0.10076E+02   -0.23399E+00  1588   0.179E+00    0.512E+01
RMM:   8    -0.119825491578E+04    0.15841E+02   -0.89954E+00  1584   0.350E+00    0.396E+01
RMM:   9    -0.117857082230E+04    0.19684E+02   -0.21543E+01  1584   0.542E+00    0.275E+01
RMM:  10    -0.116883890925E+04    0.97319E+01   -0.18870E+01  1584   0.500E+00    0.190E+01
RMM:  11    -0.117003727302E+04   -0.11984E+01   -0.15116E+01  1584   0.445E+00    0.951E+00
RMM:  12    -0.116957515088E+04    0.46212E+00   -0.64139E-01  1661   0.106E+00    0.692E+00
RMM:  13    -0.116916609640E+04    0.40905E+00   -0.56065E-01  1588   0.792E-01    0.470E+00
RMM:  14    -0.116897375131E+04    0.19235E+00   -0.49973E-01  1584   0.796E-01    0.207E+00
RMM:  15    -0.116892507656E+04    0.48675E-01   -0.17367E-01  1584   0.450E-01    0.102E+00
RMM:  16    -0.116892559577E+04   -0.51921E-03   -0.89374E-03  1650   0.117E-01    0.884E-01
RMM:  17    -0.116892545479E+04    0.14098E-03   -0.53092E-03  1583   0.829E-02    0.792E-01
RMM:  18    -0.116892580329E+04   -0.34851E-03   -0.35305E-03  1584   0.717E-02    0.557E-01
RMM:  19    -0.116892549250E+04    0.31079E-03   -0.97530E-04  1532   0.358E-02    0.428E-01
RMM:  20    -0.116892567964E+04   -0.18714E-03   -0.15335E-03  1550   0.398E-02    0.201E-01
RMM:  21    -0.116892552340E+04    0.15625E-03   -0.25504E-04  1059   0.185E-02    0.118E-01
RMM:  22    -0.116892548606E+04    0.37335E-04   -0.23951E-04  1078   0.175E-02
   1 F= -.11760578E+04 E0= -.11760578E+04  d E =-.117606E+04  mag=     0.9949
       N       E                     dE             d eps       ncg     rms          rms(c)
DAV:   1    -0.116890025447E+04    0.25269E-01   -0.60683E+00  1620   0.358E+00    0.163E+00
RMM:   2    -0.116892875521E+04   -0.28501E-01   -0.31024E-01  1591   0.592E-01    0.150E+00
RMM:   3    -0.116892246192E+04    0.62933E-02   -0.11816E-02  1667   0.111E-01    0.126E+00
RMM:   4    -0.116892155955E+04    0.90237E-03   -0.70728E-03  1580   0.892E-02    0.525E-01
RMM:   5    -0.116892185777E+04   -0.29822E-03   -0.68612E-04  1258   0.306E-02    0.233E-01
RMM:   6    -0.116892223448E+04   -0.37671E-03   -0.25552E-04  1085   0.196E-02    0.707E-02
RMM:   7    -0.116892216379E+04    0.70689E-04   -0.11301E-04  1026   0.124E-02
   2 F= -.11760560E+04 E0= -.11760560E+04  d E =0.182201E-02  mag=     1.0000
       N       E                     dE             d eps       ncg     rms          rms(c)
DAV:   1    -0.116892491026E+04   -0.26758E-02   -0.16671E+00  1656   0.189E+00    0.834E-01
RMM:   2    -0.116893258042E+04   -0.76702E-02   -0.85927E-02  1589   0.306E-01    0.785E-01
RMM:   3    -0.116893074488E+04    0.18355E-02   -0.30780E-03  1371   0.558E-02    0.682E-01
RMM:   4    -0.116893045119E+04    0.29370E-03   -0.22704E-03  1514   0.515E-02    0.268E-01
RMM:   5    -0.116893058202E+04   -0.13084E-03   -0.18139E-04  1068   0.170E-02    0.126E-01
RMM:   6    -0.116893071069E+04   -0.12867E-03   -0.84729E-05  1015   0.120E-02    0.344E-02
RMM:   7    -0.116893069113E+04    0.19566E-04   -0.28733E-05   957   0.685E-03
   3 F= -.11760637E+04 E0= -.11760637E+04  d E =-.594979E-02  mag=     1.0000
       N       E                     dE             d eps       ncg     rms          rms(c)
DAV:   1    -0.116893018089E+04    0.52980E-03   -0.10184E+00  1800   0.139E+00    0.463E-01
RMM:   2    -0.116893133213E+04   -0.11512E-02   -0.19781E-02  1584   0.189E-01    0.412E-01
RMM:   3    -0.116893075816E+04    0.57398E-03   -0.95387E-04  1489   0.401E-02    0.337E-01
RMM:   4    -0.116893008010E+04    0.67806E-03   -0.37404E-03  1584   0.690E-02    0.149E-01
RMM:   5    -0.116893026459E+04   -0.18449E-03   -0.24651E-04  1095   0.211E-02    0.820E-02
RMM:   6    -0.116893032792E+04   -0.63331E-04   -0.13248E-04  1019   0.154E-02
   4 F= -.11760635E+04 E0= -.11760635E+04  d E =0.178606E-03  mag=     1.0000
       N       E                     dE             d eps       ncg     rms          rms(c)
DAV:   1    -0.116893210100E+04   -0.18364E-02   -0.29630E-01  1692   0.753E-01    0.250E-01
RMM:   2    -0.116893232672E+04   -0.22572E-03   -0.55989E-03  1584   0.100E-01    0.225E-01
RMM:   3    -0.116893211125E+04    0.21547E-03   -0.25865E-04  1102   0.219E-02    0.187E-01
RMM:   4    -0.116893184921E+04    0.26204E-03   -0.13784E-03  1580   0.424E-02    0.822E-02
RMM:   5    -0.116893192136E+04   -0.72141E-04   -0.83226E-05   998   0.126E-02
   5 F= -.11760650E+04 E0= -.11760650E+04  d E =-.131691E-02  mag=     1.0000
       N       E                     dE             d eps       ncg     rms          rms(c)
DAV:   1    -0.116893044465E+04    0.14046E-02   -0.48627E-01  1836   0.125E+00    0.233E-01
RMM:   2    -0.116893391971E+04   -0.34751E-02   -0.40787E-02  1595   0.207E-01    0.182E-01
RMM:   3    -0.116893280889E+04    0.11108E-02   -0.15070E-03  1227   0.394E-02    0.150E-01
RMM:   4    -0.116893251038E+04    0.29851E-03   -0.89037E-04  1548   0.340E-02    0.868E-02
RMM:   5    -0.116893251062E+04   -0.23685E-06   -0.32144E-04  1192   0.210E-02
   6 F= -.11760658E+04 E0= -.11760658E+04  d E =-.725434E-03  mag=     1.0000
       N       E                     dE             d eps       ncg     rms          rms(c)
DAV:   1    -0.116893262698E+04   -0.11659E-03   -0.28856E-02  1836   0.304E-01    0.583E-02
RMM:   2    -0.116893281735E+04   -0.19037E-03   -0.23396E-03  1228   0.499E-02    0.442E-02
RMM:   3    -0.116893274157E+04    0.75774E-04   -0.95201E-05   981   0.124E-02
   7 F= -.11760660E+04 E0= -.11760660E+04  d E =-.923528E-03  mag=     1.0000
