       N       E                     dE             d eps       ncg     rms          rms(c)
DAV:   1     0.466451336288E+04    0.46645E+04   -0.17949E+05  1944   0.925E+02
DAV:   2    -0.109346428520E+03   -0.47739E+04   -0.43694E+04  2592   0.206E+02
DAV:   3    -0.120713666389E+04   -0.10978E+04   -0.10928E+04  2088   0.107E+02
DAV:   4    -0.125113457363E+04   -0.43998E+02   -0.43753E+02  2016   0.280E+01
DAV:   5    -0.125221749578E+04   -0.10829E+01   -0.10806E+01  2340   0.397E+00    0.646E+01
RMM:   6    -0.123825762709E+04    0.13960E+02   -0.83574E+00  1588   0.320E+00    0.528E+01
RMM:   7    -0.119503878687E+04    0.43219E+02   -0.82932E+01  1588   0.992E+00    0.289E+01
RMM:   8    -0.118561171342E+04    0.94271E+01   -0.30826E+01  1585   0.630E+00    0.160E+01
RMM:   9    -0.118617060276E+04   -0.55889E+00   -0.14672E+01  1584   0.439E+00    0.948E+00
RMM:  10    -0.118556724689E+04    0.60336E+00   -0.13466E+00  1609   0.133E+00    0.511E+00
RMM:  11    -0.118507339122E+04    0.49386E+00   -0.14318E+00  1584   0.133E+00    0.169E+00
RMM:  12    -0.118504259153E+04    0.30800E-01   -0.17551E-01  1588   0.436E-01    0.743E-01
RMM:  13    -0.118503137014E+04    0.11221E-01   -0.67654E-02  1602   0.271E-01    0.309E-01
RMM:  14    -0.118503129497E+04    0.75172E-04   -0.38554E-03  1628   0.776E-02    0.219E-01
RMM:  15    -0.118503162243E+04   -0.32746E-03   -0.31412E-03  1573   0.586E-02    0.136E-01
RMM:  16    -0.118503187800E+04   -0.25558E-03   -0.14458E-03  1585   0.455E-02    0.827E-02
RMM:  17    -0.118503197866E+04   -0.10065E-03   -0.39942E-04  1302   0.239E-02    0.498E-02
RMM:  18    -0.118503199200E+04   -0.13338E-04   -0.19284E-04  1086   0.170E-02
   1 F= -.11924411E+04 E0= -.11924392E+04  d E =-.119244E+04  mag=    -0.9522
       N       E                     dE             d eps       ncg     rms          rms(c)
DAV:   1    -0.118502974042E+04    0.22382E-02   -0.58122E-01  1656   0.119E+00    0.269E-01
RMM:   2    -0.118503167041E+04   -0.19300E-02   -0.25007E-02  1665   0.207E-01    0.234E-01
RMM:   3    -0.118503124702E+04    0.42339E-03   -0.12362E-03  1615   0.425E-02    0.202E-01
RMM:   4    -0.118503113941E+04    0.10761E-03   -0.31121E-03  1588   0.598E-02    0.879E-02
RMM:   5    -0.118503106681E+04    0.72599E-04   -0.90150E-05  1062   0.143E-02
   2 F= -.11924408E+04 E0= -.11924387E+04  d E =0.253323E-03  mag=    -0.9486
       N       E                     dE             d eps       ncg     rms          rms(c)
DAV:   1    -0.118503257339E+04   -0.14340E-02   -0.17694E-01  1620   0.651E-01    0.142E-01
RMM:   2    -0.118503298378E+04   -0.41039E-03   -0.58429E-03  1657   0.102E-01    0.122E-01
RMM:   3    -0.118503280733E+04    0.17645E-03   -0.27530E-04  1136   0.214E-02    0.101E-01
RMM:   4    -0.118503274212E+04    0.65214E-04   -0.10308E-03  1565   0.360E-02    0.390E-02
RMM:   5    -0.118503271732E+04    0.24794E-04   -0.25174E-05  1012   0.785E-03
   3 F= -.11924421E+04 E0= -.11924401E+04  d E =-.102315E-02  mag=    -0.9509
