       N       E                     dE             d eps       ncg     rms          rms(c)
DAV:   1     0.515610174258E+04    0.51561E+04   -0.16775E+05  1656   0.991E+02
DAV:   2     0.108293171804E+03   -0.50478E+04   -0.46287E+04  2232   0.230E+02
DAV:   3    -0.115674423988E+04   -0.12650E+04   -0.12544E+04  1908   0.126E+02
DAV:   4    -0.122448698108E+04   -0.67743E+02   -0.67127E+02  1908   0.398E+01
DAV:   5    -0.122690990031E+04   -0.24229E+01   -0.24146E+01  2196   0.686E+00    0.594E+01
RMM:   6    -0.121354238149E+04    0.13368E+02   -0.70069E+00  1731   0.363E+00    0.483E+01
RMM:   7    -0.117324533389E+04    0.40297E+02   -0.47991E+01  1698   0.979E+00    0.287E+01
RMM:   8    -0.116147570198E+04    0.11770E+02   -0.27063E+01  1824   0.105E+01    0.184E+01
RMM:   9    -0.116212208118E+04   -0.64638E+00   -0.25598E+01  1812   0.797E+00    0.923E+00
RMM:  10    -0.116118419521E+04    0.93789E+00   -0.22549E+00  1796   0.470E+00    0.509E+00
RMM:  11    -0.116117262045E+04    0.11575E-01   -0.13560E+00  1841   0.233E+00    0.138E+00
RMM:  12    -0.116107920525E+04    0.93415E-01   -0.22904E-01  1875   0.963E-01    0.873E-01
RMM:  13    -0.116106520893E+04    0.13996E-01   -0.76091E-02  1757   0.469E-01    0.454E-01
RMM:  14    -0.116105909393E+04    0.61150E-02   -0.23892E-02  1775   0.354E-01    0.288E-01
RMM:  15    -0.116105917547E+04   -0.81539E-04   -0.94808E-03  1777   0.182E-01    0.238E-01
RMM:  16    -0.116105867357E+04    0.50190E-03   -0.47395E-03  1801   0.107E-01    0.105E-01
RMM:  17    -0.116105901042E+04   -0.33686E-03   -0.64555E-04  1110   0.681E-02    0.669E-02
RMM:  18    -0.116105903047E+04   -0.20049E-04   -0.32938E-04  1002   0.478E-02
   1 F= -.11686795E+04 E0= -.11686795E+04  d E =-.116868E+04  mag=     0.9966
       N       E                     dE             d eps       ncg     rms          rms(c)
DAV:   1    -0.116105956133E+04   -0.55091E-03   -0.15225E-01  1692   0.694E-01    0.151E-01
RMM:   2    -0.116105950839E+04    0.52940E-04   -0.36087E-03  1749   0.111E-01    0.140E-01
RMM:   3    -0.116105893476E+04    0.57363E-03   -0.46649E-04  1336   0.696E-02    0.992E-02
RMM:   4    -0.116105860493E+04    0.32983E-03   -0.26572E-03  1790   0.843E-02    0.333E-02
RMM:   5    -0.116105859961E+04    0.53137E-05   -0.10466E-04   943   0.400E-02
   2 F= -.11686794E+04 E0= -.11686794E+04  d E =0.525162E-04  mag=     0.9993
       N       E                     dE             d eps       ncg     rms          rms(c)
DAV:   1    -0.116105947183E+04   -0.86690E-03   -0.46107E-02  1620   0.385E-01    0.645E-02
RMM:   2    -0.116105947086E+04    0.97164E-06   -0.82775E-04  1455   0.585E-02
   3 F= -.11686801E+04 E0= -.11686801E+04  d E =-.605550E-03  mag=     0.9999
