       N       E                     dE             d eps       ncg     rms          rms(c)
DAV:   1     0.463899900552E+04    0.46390E+04   -0.17636E+05  1944   0.912E+02
DAV:   2    -0.102639125677E+03   -0.47416E+04   -0.43209E+04  2520   0.206E+02
DAV:   3    -0.119566945715E+04   -0.10930E+04   -0.10883E+04  2088   0.107E+02
DAV:   4    -0.124026263379E+04   -0.44593E+02   -0.44365E+02  2052   0.294E+01
DAV:   5    -0.124152025639E+04   -0.12576E+01   -0.12551E+01  2376   0.453E+00    0.663E+01
RMM:   6    -0.122667014865E+04    0.14850E+02   -0.92499E+00  1635   0.345E+00    0.539E+01
RMM:   7    -0.118805499063E+04    0.38615E+02   -0.81352E+01  1648   0.102E+01    0.322E+01
RMM:   8    -0.118311316387E+04    0.49418E+01   -0.70323E+00  1708   0.338E+00    0.266E+01
RMM:   9    -0.117747331978E+04    0.56398E+01   -0.43020E+01  1604   0.740E+00    0.161E+01
RMM:  10    -0.117798310792E+04   -0.50979E+00   -0.56394E+00  1614   0.320E+00    0.128E+01
RMM:  11    -0.117518082596E+04    0.28023E+01   -0.49512E+00  1695   0.201E+00    0.511E+00
RMM:  12    -0.117475978005E+04    0.42105E+00   -0.66555E-01  1600   0.974E-01    0.406E+00
RMM:  13    -0.117453883320E+04    0.22095E+00   -0.90919E-01  1596   0.103E+00    0.111E+00
RMM:  14    -0.117451599792E+04    0.22835E-01   -0.11973E-01  1612   0.562E-01    0.112E+00
RMM:  15    -0.117451435565E+04    0.16423E-02   -0.14256E-02  1904   0.150E-01    0.900E-01
RMM:  16    -0.117451420372E+04    0.15193E-03   -0.68917E-03  1604   0.871E-02    0.618E-01
RMM:  17    -0.117451590521E+04   -0.17015E-02   -0.76064E-03  1670   0.804E-02    0.491E-01
RMM:  18    -0.117451424748E+04    0.16577E-02   -0.13558E-03  1295   0.403E-02    0.244E-01
RMM:  19    -0.117451413612E+04    0.11136E-03   -0.41937E-04  1230   0.256E-02    0.889E-02
RMM:  20    -0.117451409233E+04    0.43788E-04   -0.14511E-04  1053   0.174E-02
   1 F= -.11815523E+04 E0= -.11815463E+04  d E =-.118155E+04  mag=    -0.8107
       N       E                     dE             d eps       ncg     rms          rms(c)
DAV:   1    -0.117395863953E+04    0.55550E+00   -0.45625E+01  1728   0.673E+00    0.737E+00
RMM:   2    -0.117433203254E+04   -0.37339E+00   -0.42035E+00  1750   0.143E+00    0.739E+00
RMM:   3    -0.117427379561E+04    0.58237E-01   -0.17787E-01  1672   0.394E-01    0.750E+00
RMM:   4    -0.117429778078E+04   -0.23985E-01   -0.39165E-02  1692   0.131E-01    0.857E+00
RMM:   5    -0.117424140661E+04    0.56374E-01   -0.48318E-01  1627   0.632E-01    0.172E+00
RMM:   6    -0.117423351914E+04    0.78875E-02   -0.22501E-02  1524   0.197E-01    0.911E-01
RMM:   7    -0.117423006152E+04    0.34576E-02   -0.25598E-03  1288   0.462E-02    0.763E-01
RMM:   8    -0.117422374681E+04    0.63147E-02   -0.85367E-03  1564   0.852E-02    0.480E-01
RMM:   9    -0.117422234985E+04    0.13970E-02   -0.42315E-03  1493   0.710E-02    0.153E-01
RMM:  10    -0.117422236145E+04   -0.11600E-04   -0.94235E-04  1184   0.299E-02
   2 F= -.11812668E+04 E0= -.11812612E+04  d E =0.285492E+00  mag=    -0.8246
       N       E                     dE             d eps       ncg     rms          rms(c)
DAV:   1    -0.117441868385E+04   -0.19633E+00   -0.25719E+01  1800   0.587E+00    0.572E+00
RMM:   2    -0.117464190051E+04   -0.22322E+00   -0.26275E+00  1677   0.963E-01    0.564E+00
RMM:   3    -0.117456154100E+04    0.80360E-01   -0.11128E-01  1618   0.273E-01    0.560E+00
RMM:   4    -0.117454818678E+04    0.13354E-01   -0.28036E-02  1658   0.123E-01    0.443E+00
RMM:   5    -0.117454755424E+04    0.63253E-03   -0.10655E-01  1630   0.270E-01    0.574E-01
RMM:   6    -0.117454214088E+04    0.54134E-02   -0.12152E-02  1607   0.937E-02    0.627E-01
RMM:   7    -0.117454060355E+04    0.15373E-02   -0.58694E-03  1530   0.583E-02    0.486E-01
RMM:   8    -0.117453991234E+04    0.69121E-03   -0.15468E-03  1236   0.337E-02    0.123E-01
RMM:   9    -0.117453979023E+04    0.12210E-03   -0.19306E-03  1224   0.380E-02    0.108E-01
RMM:  10    -0.117453961462E+04    0.17561E-03   -0.58803E-04  1179   0.224E-02    0.643E-02
RMM:  11    -0.117453960852E+04    0.60964E-05   -0.67944E-05  1003   0.107E-02
   3 F= -.11815794E+04 E0= -.11815735E+04  d E =-.271198E-01  mag=    -0.8141
