       N       E                     dE             d eps       ncg     rms          rms(c)
DAV:   1     0.501340257956E+04    0.50134E+04   -0.17124E+05  1728   0.990E+02
DAV:   2     0.539989255352E+02   -0.49594E+04   -0.45590E+04  2268   0.222E+02
DAV:   3    -0.116340351339E+04   -0.12174E+04   -0.12107E+04  1836   0.123E+02
DAV:   4    -0.122827515383E+04   -0.64872E+02   -0.64435E+02  1872   0.393E+01
DAV:   5    -0.123100523381E+04   -0.27301E+01   -0.27211E+01  2124   0.766E+00    0.605E+01
RMM:   6    -0.121764388669E+04    0.13361E+02   -0.74925E+00  1621   0.379E+00    0.495E+01
RMM:   7    -0.117454087228E+04    0.43103E+02   -0.72379E+01  1710   0.120E+01    0.284E+01
RMM:   8    -0.116430186828E+04    0.10239E+02   -0.37809E+01  1669   0.114E+01    0.146E+01
RMM:   9    -0.116511307834E+04   -0.81121E+00   -0.15239E+01  1639   0.817E+00    0.897E+00
RMM:  10    -0.116521628692E+04   -0.10321E+00   -0.23717E+00  1770   0.384E+00    0.701E+00
RMM:  11    -0.116438954547E+04    0.82674E+00   -0.27363E+00  1567   0.218E+00    0.278E+00
RMM:  12    -0.116437096784E+04    0.18578E-01   -0.32211E-01  1558   0.251E+00    0.127E+00
RMM:  13    -0.116434674735E+04    0.24220E-01   -0.12237E-01  1872   0.487E-01    0.838E-01
RMM:  14    -0.116433937674E+04    0.73706E-02   -0.49167E-02  1566   0.324E-01    0.431E-01
RMM:  15    -0.116434027278E+04   -0.89603E-03   -0.10522E-02  1614   0.314E-01    0.358E-01
RMM:  16    -0.116434114874E+04   -0.87597E-03   -0.42725E-03  1665   0.102E-01    0.305E-01
RMM:  17    -0.116433982235E+04    0.13264E-02   -0.34592E-03  1593   0.104E-01    0.209E-01
RMM:  18    -0.116434009857E+04   -0.27622E-03   -0.87810E-04  1339   0.897E-02    0.123E-01
RMM:  19    -0.116434018483E+04   -0.86257E-04   -0.39629E-04  1184   0.557E-02
   1 F= -.11713176E+04 E0= -.11713106E+04  d E =-.117132E+04  mag=    -0.7675
       N       E                     dE             d eps       ncg     rms          rms(c)
DAV:   1    -0.116434112761E+04   -0.10290E-02   -0.22031E-01  1692   0.850E-01    0.177E-01
RMM:   2    -0.116434109871E+04    0.28906E-04   -0.52916E-03  1613   0.130E-01    0.163E-01
RMM:   3    -0.116434038852E+04    0.71018E-03   -0.88136E-04  1394   0.110E-01    0.122E-01
RMM:   4    -0.116433976598E+04    0.62254E-03   -0.35244E-03  1535   0.848E-02    0.433E-02
RMM:   5    -0.116433979901E+04   -0.33034E-04   -0.47148E-04  1184   0.108E-01
   2 F= -.11713175E+04 E0= -.11713106E+04  d E =0.134836E-03  mag=    -0.7694
       N       E                     dE             d eps       ncg     rms          rms(c)
DAV:   1    -0.116434088605E+04   -0.11201E-02   -0.60954E-02  1620   0.447E-01    0.829E-02
RMM:   2    -0.116434085563E+04    0.30426E-04   -0.11274E-03  1465   0.716E-02    0.741E-02
RMM:   3    -0.116434063402E+04    0.22161E-03   -0.25388E-04   941   0.573E-02    0.502E-02
RMM:   4    -0.116434053123E+04    0.10279E-03   -0.48294E-04  1243   0.434E-02    0.223E-02
RMM:   5    -0.116434054608E+04   -0.14855E-04   -0.15906E-04   903   0.565E-02
   3 F= -.11713181E+04 E0= -.11713112E+04  d E =-.478230E-03  mag=    -0.7710
