       N       E                     dE             d eps       ncg     rms          rms(c)
DAV:   1     0.493328919607E+04    0.49333E+04   -0.17473E+05  1872   0.918E+02
DAV:   2    -0.494890592276E+02   -0.49828E+04   -0.45499E+04  2520   0.207E+02
DAV:   3    -0.120200942052E+04   -0.11525E+04   -0.11482E+04  2124   0.110E+02
DAV:   4    -0.124824941656E+04   -0.46240E+02   -0.46010E+02  1980   0.291E+01
DAV:   5    -0.124944205035E+04   -0.11926E+01   -0.11898E+01  2340   0.438E+00    0.649E+01
RMM:   6    -0.123429850009E+04    0.15144E+02   -0.89723E+00  1588   0.333E+00    0.531E+01
RMM:   7    -0.119369142829E+04    0.40607E+02   -0.94161E+01  1596   0.103E+01    0.297E+01
RMM:   8    -0.118608141536E+04    0.76100E+01   -0.10584E+01  1608   0.361E+00    0.237E+01
RMM:   9    -0.118316034625E+04    0.29211E+01   -0.28650E+01  1584   0.601E+00    0.121E+01
RMM:  10    -0.118276546849E+04    0.39488E+00   -0.41724E+00  1593   0.232E+00    0.832E+00
RMM:  11    -0.118190097664E+04    0.86449E+00   -0.13934E+00  1591   0.111E+00    0.580E+00
RMM:  12    -0.118121845735E+04    0.68252E+00   -0.16090E+00  1585   0.140E+00    0.212E+00
RMM:  13    -0.118121932199E+04   -0.86464E-03   -0.15799E-01  1586   0.452E-01    0.146E+00
RMM:  14    -0.118126946641E+04   -0.50144E-01   -0.81588E-02  1598   0.304E-01    0.816E-01
RMM:  15    -0.118128130116E+04   -0.11835E-01   -0.49381E-02  1584   0.255E-01    0.480E-01
RMM:  16    -0.118128560979E+04   -0.43086E-02   -0.83260E-03  1612   0.103E-01    0.370E-01
RMM:  17    -0.118128354261E+04    0.20672E-02   -0.59511E-03  1589   0.771E-02    0.246E-01
RMM:  18    -0.118128431759E+04   -0.77498E-03   -0.99758E-04  1565   0.366E-02    0.209E-01
RMM:  19    -0.118128417916E+04    0.13843E-03   -0.13298E-03  1552   0.385E-02    0.800E-02
RMM:  20    -0.118128432366E+04   -0.14450E-03   -0.24537E-04  1108   0.183E-02    0.455E-02
RMM:  21    -0.118128431230E+04    0.11352E-04   -0.83981E-05  1035   0.113E-02
   1 F= -.11886112E+04 E0= -.11886112E+04  d E =-.118861E+04  mag=    -1.0008
       N       E                     dE             d eps       ncg     rms          rms(c)
DAV:   1    -0.118128076025E+04    0.35634E-02   -0.54924E-01  1656   0.112E+00    0.374E-01
RMM:   2    -0.118128275189E+04   -0.19916E-02   -0.25990E-02  1667   0.199E-01    0.315E-01
RMM:   3    -0.118128208547E+04    0.66642E-03   -0.15641E-03  1615   0.447E-02    0.256E-01
RMM:   4    -0.118128179337E+04    0.29210E-03   -0.23245E-03  1584   0.519E-02    0.127E-01
RMM:   5    -0.118128174050E+04    0.52874E-04   -0.21205E-04  1117   0.175E-02
   2 F= -.11886099E+04 E0= -.11886098E+04  d E =0.136083E-02  mag=    -1.0001
       N       E                     dE             d eps       ncg     rms          rms(c)
DAV:   1    -0.118128449018E+04   -0.26968E-02   -0.22743E-01  1692   0.722E-01    0.235E-01
RMM:   2    -0.118128514182E+04   -0.65164E-03   -0.96010E-03  1656   0.123E-01    0.196E-01
RMM:   3    -0.118128479487E+04    0.34695E-03   -0.58394E-04  1236   0.283E-02    0.156E-01
RMM:   4    -0.118128461595E+04    0.17892E-03   -0.12735E-03  1574   0.389E-02    0.722E-02
RMM:   5    -0.118128459603E+04    0.19917E-04   -0.73356E-05  1041   0.111E-02
   3 F= -.11886119E+04 E0= -.11886119E+04  d E =-.717672E-03  mag=    -1.0000
