       N       E                     dE             d eps       ncg     rms          rms(c)
DAV:   1     0.461612073362E+04    0.46161E+04   -0.18085E+05  1920   0.955E+02
DAV:   2    -0.919180173996E+02   -0.47080E+04   -0.43065E+04  2496   0.209E+02
DAV:   3    -0.120098179998E+04   -0.11091E+04   -0.11030E+04  1984   0.109E+02
DAV:   4    -0.124751853742E+04   -0.46537E+02   -0.46219E+02  1952   0.294E+01
DAV:   5    -0.124870135565E+04   -0.11828E+01   -0.11793E+01  2176   0.428E+00    0.714E+01
RMM:   6    -0.123369691051E+04    0.15004E+02   -0.91336E+00  1593   0.361E+00    0.547E+01
RMM:   7    -0.120182686591E+04    0.31870E+02   -0.76303E+01  1632   0.981E+00    0.329E+01
RMM:   8    -0.119298805537E+04    0.88388E+01   -0.10174E+01  1592   0.476E+00    0.282E+01
RMM:   9    -0.118805071592E+04    0.49373E+01   -0.44733E+01  1729   0.784E+00    0.218E+01
RMM:  10    -0.118524753558E+04    0.28032E+01   -0.52139E+00  1630   0.346E+00    0.175E+01
RMM:  11    -0.118348683539E+04    0.17607E+01   -0.98798E+00  1713   0.302E+00    0.102E+01
RMM:  12    -0.118286565941E+04    0.62118E+00   -0.11083E+00  1669   0.153E+00    0.659E+00
RMM:  13    -0.118258676162E+04    0.27890E+00   -0.29656E-01  1589   0.756E-01    0.516E+00
RMM:  14    -0.118252794089E+04    0.58821E-01   -0.39174E-01  1548   0.791E-01    0.340E+00
RMM:  15    -0.118254008199E+04   -0.12141E-01   -0.19265E-01  1607   0.535E-01    0.180E+00
RMM:  16    -0.118254047598E+04   -0.39399E-03   -0.40169E-02  1622   0.275E-01    0.137E+00
RMM:  17    -0.118253966777E+04    0.80821E-03   -0.35249E-02  1564   0.246E-01    0.893E-01
RMM:  18    -0.118253512652E+04    0.45412E-02   -0.13467E-02  1681   0.163E-01    0.648E-01
RMM:  19    -0.118253453491E+04    0.59161E-03   -0.27196E-03  1657   0.776E-02    0.449E-01
RMM:  20    -0.118253393859E+04    0.59632E-03   -0.14460E-03  1755   0.485E-02    0.304E-01
RMM:  21    -0.118253316021E+04    0.77838E-03   -0.86105E-04  1681   0.326E-02    0.193E-01
RMM:  22    -0.118253282771E+04    0.33249E-03   -0.48418E-04  1655   0.222E-02    0.118E-01
RMM:  23    -0.118253282063E+04    0.70814E-05   -0.13414E-04  1709   0.145E-02    0.766E-02
RMM:  24    -0.118253273227E+04    0.88362E-04   -0.14577E-04  1802   0.122E-02    0.387E-02
RMM:  25    -0.118253273291E+04   -0.64144E-06   -0.22361E-05  1666   0.565E-03    0.286E-02
RMM:  26    -0.118253272817E+04    0.47470E-05   -0.18437E-05  1631   0.475E-03    0.165E-02
RMM:  27    -0.118253272680E+04    0.13702E-05   -0.39719E-06  1206   0.244E-03    0.133E-02
RMM:  28    -0.118253272335E+04    0.34503E-05   -0.34505E-06  1207   0.195E-03    0.786E-03
RMM:  29    -0.118253272205E+04    0.12953E-05   -0.17812E-06  1082   0.151E-03    0.393E-03
RMM:  30    -0.118253272183E+04    0.21503E-06   -0.12941E-06  1071   0.125E-03
   1 F= -.11897422E+04 E0= -.11897422E+04  d E =-.118974E+04  mag=    -0.9999
       N       E                     dE             d eps       ncg     rms          rms(c)
DAV:   1    -0.118253130885E+04    0.14132E-02   -0.27542E-01  1600   0.878E-01    0.213E-01
RMM:   2    -0.118253202042E+04   -0.71157E-03   -0.91743E-03  1692   0.149E-01    0.194E-01
RMM:   3    -0.118253195436E+04    0.66054E-04   -0.18758E-03  1692   0.631E-02    0.153E-01
RMM:   4    -0.118253191568E+04    0.38683E-04   -0.16778E-03  1569   0.516E-02    0.604E-02
RMM:   5    -0.118253190092E+04    0.14759E-04   -0.21564E-04  1791   0.229E-02    0.412E-02
RMM:   6    -0.118253187121E+04    0.29712E-04   -0.69984E-05  1563   0.106E-02    0.214E-02
RMM:   7    -0.118253186506E+04    0.61495E-05   -0.32324E-05  1647   0.703E-03    0.113E-02
RMM:   8    -0.118253186471E+04    0.34938E-06   -0.25937E-05  1592   0.605E-03    0.649E-03
RMM:   9    -0.118253186368E+04    0.10315E-05   -0.34655E-06  1242   0.289E-03    0.416E-03
RMM:  10    -0.118253186347E+04    0.20634E-06   -0.21834E-06  1076   0.196E-03
   2 F= -.11897421E+04 E0= -.11897421E+04  d E =0.112051E-03  mag=    -1.0000
       N       E                     dE             d eps       ncg     rms          rms(c)
DAV:   1    -0.118253280435E+04   -0.94068E-03   -0.76132E-02  1728   0.460E-01    0.112E-01
RMM:   2    -0.118253296009E+04   -0.15573E-03   -0.21894E-03  1674   0.758E-02    0.101E-01
RMM:   3    -0.118253292475E+04    0.35332E-04   -0.43457E-04  1625   0.316E-02    0.768E-02
RMM:   4    -0.118253291652E+04    0.82319E-05   -0.43101E-04  1573   0.261E-02    0.318E-02
RMM:   5    -0.118253290830E+04    0.82211E-05   -0.47945E-05  1669   0.112E-02    0.199E-02
RMM:   6    -0.118253290286E+04    0.54410E-05   -0.16104E-05  1549   0.524E-03    0.109E-02
RMM:   7    -0.118253290066E+04    0.21979E-05   -0.90937E-06  1531   0.367E-03    0.532E-03
RMM:   8    -0.118253290080E+04   -0.14029E-06   -0.67734E-06  1535   0.307E-03
   3 F= -.11897427E+04 E0= -.11897427E+04  d E =-.532480E-03  mag=    -1.0000
