       N       E                     dE             d eps       ncg     rms          rms(c)
DAV:   1     0.481477816371E+04    0.48148E+04   -0.17161E+05  1872   0.903E+02
DAV:   2    -0.781208878112E+02   -0.48929E+04   -0.44430E+04  2520   0.204E+02
DAV:   3    -0.119128523388E+04   -0.11132E+04   -0.11090E+04  2160   0.108E+02
DAV:   4    -0.123528313527E+04   -0.43998E+02   -0.43800E+02  2052   0.281E+01
DAV:   5    -0.123641858640E+04   -0.11355E+01   -0.11336E+01  2376   0.419E+00    0.680E+01
RMM:   6    -0.122276500339E+04    0.13654E+02   -0.98149E+00  1622   0.330E+00    0.542E+01
RMM:   7    -0.118846876339E+04    0.34296E+02   -0.90851E+01  1631   0.970E+00    0.306E+01
RMM:   8    -0.118033101777E+04    0.81377E+01   -0.70732E+00  1727   0.303E+00    0.259E+01
RMM:   9    -0.117482821045E+04    0.55028E+01   -0.26869E+01  1593   0.561E+00    0.163E+01
RMM:  10    -0.117496048775E+04   -0.13228E+00   -0.10235E+01  1589   0.356E+00    0.109E+01
RMM:  11    -0.117268350526E+04    0.22770E+01   -0.30137E+00  1677   0.149E+00    0.589E+00
RMM:  12    -0.117227353401E+04    0.40997E+00   -0.61802E-01  1620   0.814E-01    0.324E+00
RMM:  13    -0.117213456888E+04    0.13897E+00   -0.59105E-01  1586   0.829E-01    0.155E+00
RMM:  14    -0.117209615381E+04    0.38415E-01   -0.74951E-02  1711   0.295E-01    0.161E+00
RMM:  15    -0.117209716766E+04   -0.10139E-02   -0.87657E-03  1840   0.924E-02    0.158E+00
RMM:  16    -0.117209989963E+04   -0.27320E-02   -0.33413E-03  1722   0.438E-02    0.200E+00
RMM:  17    -0.117209551341E+04    0.43862E-02   -0.11586E-02  1609   0.948E-02    0.862E-01
RMM:  18    -0.117209836731E+04   -0.28539E-02   -0.55830E-03  1732   0.651E-02    0.166E+00
RMM:  19    -0.117209810610E+04    0.26121E-03   -0.12173E-03  1278   0.215E-02    0.154E+00
RMM:  20    -0.117210056189E+04   -0.24558E-02   -0.13902E-03  1415   0.246E-02    0.200E+00
RMM:  21    -0.117209845649E+04    0.21054E-02   -0.26609E-03  1548   0.491E-02    0.134E+00
RMM:  22    -0.117209899515E+04   -0.53866E-03   -0.55157E-04  1185   0.201E-02    0.138E+00
RMM:  23    -0.117209827403E+04    0.72112E-03   -0.26672E-04  1096   0.129E-02    0.133E+00
RMM:  24    -0.117209583052E+04    0.24435E-02   -0.24924E-03  1506   0.510E-02    0.111E+00
RMM:  25    -0.117209564323E+04    0.18728E-03   -0.44879E-04  1143   0.177E-02    0.952E-01
RMM:  26    -0.117209562311E+04    0.20122E-04   -0.30159E-04  1107   0.136E-02
   1 F= -.11793740E+04 E0= -.11793740E+04  d E =-.117937E+04  mag=    -0.0013
       N       E                     dE             d eps       ncg     rms          rms(c)
DAV:   1    -0.117208868428E+04    0.69590E-02   -0.14033E+00  1836   0.185E+00    0.953E-01
RMM:   2    -0.117209398839E+04   -0.53041E-02   -0.70602E-02  1799   0.340E-01    0.641E-01
RMM:   3    -0.117209323680E+04    0.75159E-03   -0.41073E-03  1874   0.714E-02    0.568E-01
RMM:   4    -0.117209183192E+04    0.14049E-02   -0.45730E-03  1592   0.702E-02    0.282E-01
RMM:   5    -0.117209171003E+04    0.12189E-03   -0.48699E-04  1462   0.264E-02    0.217E-01
RMM:   6    -0.117209176858E+04   -0.58559E-04   -0.49002E-04  1361   0.246E-02
   2 F= -.11793711E+04 E0= -.11793711E+04  d E =0.295789E-02  mag=    -0.0002
       N       E                     dE             d eps       ncg     rms          rms(c)
DAV:   1    -0.117209646212E+04   -0.47521E-02   -0.49582E-01  1764   0.110E+00    0.378E-01
RMM:   2    -0.117209829330E+04   -0.18312E-02   -0.22325E-02  1786   0.198E-01    0.381E-01
RMM:   3    -0.117209817283E+04    0.12047E-03   -0.10077E-03  1488   0.384E-02    0.354E-01
RMM:   4    -0.117209772602E+04    0.44680E-03   -0.17580E-03  1573   0.449E-02    0.255E-01
RMM:   5    -0.117209800736E+04   -0.28133E-03   -0.13249E-03  1570   0.398E-02    0.168E-01
RMM:   6    -0.117209834782E+04   -0.34046E-03   -0.36783E-04  1151   0.205E-02    0.188E-01
RMM:   7    -0.117209773679E+04    0.61103E-03   -0.52765E-04  1249   0.253E-02    0.158E-01
RMM:   8    -0.117209715402E+04    0.58277E-03   -0.74394E-04  1236   0.285E-02    0.129E-01
RMM:   9    -0.117209686156E+04    0.29246E-03   -0.86157E-04  1278   0.306E-02    0.835E-02
RMM:  10    -0.117209696578E+04   -0.10422E-03   -0.91469E-05  1053   0.111E-02    0.588E-02
RMM:  11    -0.117209688671E+04    0.79063E-04   -0.11713E-03  1372   0.360E-02    0.145E-01
RMM:  12    -0.117209694287E+04   -0.56153E-04   -0.10380E-04  1082   0.139E-02
   3 F= -.11793757E+04 E0= -.11793757E+04  d E =-.167396E-02  mag=     0.0000
       N       E                     dE             d eps       ncg     rms          rms(c)
DAV:   1    -0.117209797291E+04   -0.10862E-02   -0.43078E-01  1728   0.106E+00    0.239E-01
RMM:   2    -0.117209882057E+04   -0.84766E-03   -0.13019E-02  1754   0.159E-01    0.210E-01
RMM:   3    -0.117209834051E+04    0.48007E-03   -0.78368E-04  1575   0.360E-02    0.169E-01
RMM:   4    -0.117209789760E+04    0.44291E-03   -0.23881E-03  1584   0.529E-02    0.700E-02
RMM:   5    -0.117209787814E+04    0.19457E-04   -0.66160E-05  1067   0.118E-02
   4 F= -.11793765E+04 E0= -.11793765E+04  d E =-.787813E-03  mag=     0.0000
       N       E                     dE             d eps       ncg     rms          rms(c)
DAV:   1    -0.117209823803E+04   -0.34043E-03   -0.58875E-02  1728   0.391E-01    0.871E-02
RMM:   2    -0.117209833849E+04   -0.10046E-03   -0.16629E-03  1740   0.567E-02    0.778E-02
RMM:   3    -0.117209827749E+04    0.61001E-04   -0.98508E-05  1049   0.137E-02
   5 F= -.11793769E+04 E0= -.11793769E+04  d E =-.124087E-02  mag=    -0.0000
       N       E                     dE             d eps       ncg     rms          rms(c)
DAV:   1    -0.117209911083E+04   -0.77234E-03   -0.24853E-01  1728   0.792E-01    0.114E-01
RMM:   2    -0.117209946304E+04   -0.35220E-03   -0.43269E-03  1648   0.953E-02    0.100E-01
RMM:   3    -0.117209942637E+04    0.36665E-04   -0.27001E-04  1229   0.230E-02
   6 F= -.11793781E+04 E0= -.11793781E+04  d E =-.113460E-02  mag=    -0.0000
       N       E                     dE             d eps       ncg     rms          rms(c)
DAV:   1    -0.117209946642E+04   -0.33827E-05   -0.12456E-01  1728   0.562E-01    0.141E-01
RMM:   2    -0.117209957937E+04   -0.11295E-03   -0.20630E-03  1666   0.654E-02    0.130E-01
RMM:   3    -0.117209957021E+04    0.91588E-05   -0.19345E-04  1132   0.193E-02
   7 F= -.11793782E+04 E0= -.11793782E+04  d E =-.127240E-02  mag=    -0.0000
       N       E                     dE             d eps       ncg     rms          rms(c)
DAV:   1    -0.117210020890E+04   -0.62954E-03   -0.13068E-01  1728   0.574E-01    0.130E-01
RMM:   2    -0.117210043242E+04   -0.22352E-03   -0.25845E-03  1744   0.733E-02    0.126E-01
RMM:   3    -0.117210046834E+04   -0.35922E-04   -0.16908E-04  1127   0.182E-02
   8 F= -.11793793E+04 E0= -.11793793E+04  d E =-.109894E-02  mag=    -0.0000
       N       E                     dE             d eps       ncg     rms          rms(c)
DAV:   1    -0.117210057674E+04   -0.14432E-03   -0.12535E-01  1728   0.561E-01    0.146E-01
RMM:   2    -0.117210078468E+04   -0.20794E-03   -0.24417E-03  1751   0.711E-02    0.140E-01
RMM:   3    -0.117210086579E+04   -0.81107E-04   -0.22699E-04  1159   0.205E-02
   9 F= -.11793799E+04 E0= -.11793799E+04  d E =-.169573E-02  mag=    -0.0000
       N       E                     dE             d eps       ncg     rms          rms(c)
DAV:   1    -0.117210179385E+04   -0.10092E-02   -0.74776E-02  1728   0.436E-01    0.123E-01
RMM:   2    -0.117210208594E+04   -0.29209E-03   -0.25425E-03  1776   0.675E-02    0.131E-01
RMM:   3    -0.117210204369E+04    0.42248E-04   -0.11575E-04  1100   0.148E-02
  10 F= -.11793811E+04 E0= -.11793811E+04  d E =-.118939E-02  mag=    -0.0000
       N       E                     dE             d eps       ncg     rms          rms(c)
DAV:   1    -0.117210234510E+04   -0.25916E-03   -0.12989E-01  1656   0.583E-01    0.141E-01
RMM:   2    -0.117210270935E+04   -0.36425E-03   -0.43911E-03  1783   0.887E-02    0.143E-01
RMM:   3    -0.117210269305E+04    0.16303E-04   -0.19479E-04  1169   0.189E-02
  11 F= -.11793818E+04 E0= -.11793818E+04  d E =-.185717E-02  mag=    -0.0000
       N       E                     dE             d eps       ncg     rms          rms(c)
DAV:   1    -0.117210336923E+04   -0.65987E-03   -0.11766E-01  1728   0.554E-01    0.146E-01
RMM:   2    -0.117210363242E+04   -0.26319E-03   -0.33785E-03  1746   0.801E-02    0.143E-01
RMM:   3    -0.117210362679E+04    0.56265E-05   -0.17953E-04  1163   0.185E-02
  12 F= -.11793827E+04 E0= -.11793827E+04  d E =-.910496E-03  mag=    -0.0000
       N       E                     dE             d eps       ncg     rms          rms(c)
DAV:   1    -0.117210366813E+04   -0.35708E-04   -0.89501E-02  1728   0.481E-01    0.111E-01
RMM:   2    -0.117210387354E+04   -0.20541E-03   -0.24682E-03  1768   0.671E-02    0.106E-01
RMM:   3    -0.117210387637E+04   -0.28325E-05   -0.13166E-04  1120   0.157E-02
  13 F= -.11793829E+04 E0= -.11793829E+04  d E =-.114119E-02  mag=    -0.0001
       N       E                     dE             d eps       ncg     rms          rms(c)
DAV:   1    -0.117210429410E+04   -0.42056E-03   -0.96175E-02  1728   0.489E-01    0.989E-02
RMM:   2    -0.117210442786E+04   -0.13376E-03   -0.20254E-03  1709   0.647E-02    0.901E-02
RMM:   3    -0.117210440108E+04    0.26777E-04   -0.12008E-04  1099   0.158E-02
  14 F= -.11793835E+04 E0= -.11793835E+04  d E =-.601401E-03  mag=    -0.0001
       N       E                     dE             d eps       ncg     rms          rms(c)
DAV:   1    -0.117210420187E+04    0.22599E-03   -0.14959E-01  1728   0.612E-01    0.905E-02
RMM:   2    -0.117210441203E+04   -0.21016E-03   -0.29756E-03  1726   0.783E-02    0.836E-02
RMM:   3    -0.117210438263E+04    0.29394E-04   -0.16854E-04  1158   0.184E-02
  15 F= -.11793836E+04 E0= -.11793836E+04  d E =-.681242E-03  mag=    -0.0001
