       N       E                     dE             d eps       ncg     rms          rms(c)
DAV:   1     0.498947866438E+04    0.49895E+04   -0.17213E+05  1836   0.912E+02
DAV:   2    -0.438746583032E+02   -0.50334E+04   -0.45940E+04  2520   0.210E+02
DAV:   3    -0.119016093272E+04   -0.11463E+04   -0.11416E+04  2196   0.110E+02
DAV:   4    -0.123729292966E+04   -0.47132E+02   -0.46876E+02  2088   0.286E+01
DAV:   5    -0.123866195995E+04   -0.13690E+01   -0.13657E+01  2448   0.418E+00    0.650E+01
RMM:   6    -0.122471366481E+04    0.13948E+02   -0.83840E+00  1587   0.316E+00    0.528E+01
RMM:   7    -0.118595007341E+04    0.38764E+02   -0.64213E+01  1585   0.886E+00    0.323E+01
RMM:   8    -0.118011273617E+04    0.58373E+01   -0.71625E+00  1603   0.297E+00    0.260E+01
RMM:   9    -0.117386816003E+04    0.62446E+01   -0.26143E+01  1586   0.571E+00    0.149E+01
RMM:  10    -0.117532907661E+04   -0.14609E+01   -0.89461E+00  1589   0.342E+00    0.973E+00
RMM:  11    -0.117314164728E+04    0.21874E+01   -0.35574E+00  1584   0.153E+00    0.520E+00
RMM:  12    -0.117283932899E+04    0.30232E+00   -0.85052E-01  1593   0.975E-01    0.208E+00
RMM:  13    -0.117277275923E+04    0.66570E-01   -0.21812E-01  1599   0.505E-01    0.116E+00
RMM:  14    -0.117274759104E+04    0.25168E-01   -0.82349E-02  1605   0.252E-01    0.472E-01
RMM:  15    -0.117274686667E+04    0.72438E-03   -0.12267E-02  1627   0.112E-01    0.369E-01
RMM:  16    -0.117274589691E+04    0.96976E-03   -0.31283E-03  1627   0.480E-02    0.190E-01
RMM:  17    -0.117274635551E+04   -0.45860E-03   -0.63346E-04  1206   0.261E-02    0.176E-01
RMM:  18    -0.117274635965E+04   -0.41489E-05   -0.15165E-03  1387   0.350E-02    0.960E-02
RMM:  19    -0.117274636257E+04   -0.29192E-05   -0.13971E-04  1064   0.148E-02
   1 F= -.11798579E+04 E0= -.11798579E+04  d E =-.117986E+04  mag=     1.0010
       N       E                     dE             d eps       ncg     rms          rms(c)
DAV:   1    -0.117256716697E+04    0.17919E+00   -0.45569E+01  1656   0.511E+00    0.629E+00
RMM:   2    -0.117268210812E+04   -0.11494E+00   -0.12524E+00  1624   0.798E-01    0.588E+00
RMM:   3    -0.117265785986E+04    0.24248E-01   -0.89940E-02  1653   0.230E-01    0.388E+00
RMM:   4    -0.117266590944E+04   -0.80496E-02   -0.19402E-01  1645   0.314E-01    0.120E+00
RMM:   5    -0.117265830393E+04    0.76055E-02   -0.62929E-02  1580   0.195E-01    0.348E-01
RMM:   6    -0.117265778284E+04    0.52109E-03   -0.19523E-03  1408   0.364E-02    0.209E-01
RMM:   7    -0.117265659839E+04    0.11844E-02   -0.37445E-03  1528   0.467E-02    0.116E-01
RMM:   8    -0.117265649805E+04    0.10035E-03   -0.44941E-04  1177   0.183E-02    0.867E-02
RMM:   9    -0.117265640303E+04    0.95021E-04   -0.36017E-04  1092   0.162E-02
   2 F= -.11797726E+04 E0= -.11797726E+04  d E =0.853322E-01  mag=     1.0000
       N       E                     dE             d eps       ncg     rms          rms(c)
DAV:   1    -0.117275400810E+04   -0.97510E-01   -0.17497E+01  1656   0.348E+00    0.402E+00
RMM:   2    -0.117279742206E+04   -0.43414E-01   -0.48962E-01  1617   0.496E-01    0.396E+00
RMM:   3    -0.117278578297E+04    0.11639E-01   -0.15850E-02  1624   0.916E-02    0.332E+00
RMM:   4    -0.117278810248E+04   -0.23195E-02   -0.12755E-01  1643   0.240E-01    0.613E-01
RMM:   5    -0.117278562951E+04    0.24730E-02   -0.41247E-03  1544   0.536E-02    0.437E-01
RMM:   6    -0.117278221101E+04    0.34185E-02   -0.16133E-02  1571   0.928E-02    0.141E-01
RMM:   7    -0.117278211985E+04    0.91164E-04   -0.56499E-04  1170   0.206E-02
   3 F= -.11798954E+04 E0= -.11798954E+04  d E =-.375002E-01  mag=     1.0000
       N       E                     dE             d eps       ncg     rms          rms(c)
DAV:   1    -0.117278301912E+04   -0.80811E-03   -0.80095E-01  1692   0.128E+00    0.347E-01
RMM:   2    -0.117278421174E+04   -0.11926E-02   -0.17676E-02  1597   0.180E-01    0.318E-01
RMM:   3    -0.117278362901E+04    0.58273E-03   -0.10657E-03  1470   0.374E-02    0.274E-01
RMM:   4    -0.117278315072E+04    0.47828E-03   -0.43612E-03  1588   0.697E-02    0.116E-01
RMM:   5    -0.117278311140E+04    0.39328E-04   -0.27381E-04  1120   0.191E-02
   4 F= -.11798969E+04 E0= -.11798969E+04  d E =-.149354E-02  mag=     1.0000
       N       E                     dE             d eps       ncg     rms          rms(c)
DAV:   1    -0.117278398698E+04   -0.83625E-03   -0.11259E-01  1728   0.480E-01    0.126E-01
RMM:   2    -0.117278405606E+04   -0.69085E-04   -0.23223E-03  1560   0.634E-02    0.115E-01
RMM:   3    -0.117278387450E+04    0.18156E-03   -0.17457E-04  1079   0.166E-02    0.944E-02
RMM:   4    -0.117278375435E+04    0.12015E-03   -0.82382E-04  1540   0.304E-02    0.484E-02
RMM:   5    -0.117278374359E+04    0.10759E-04   -0.39996E-05   999   0.823E-03
   5 F= -.11798974E+04 E0= -.11798974E+04  d E =-.193716E-02  mag=     1.0000
       N       E                     dE             d eps       ncg     rms          rms(c)
DAV:   1    -0.117278522851E+04   -0.14742E-02   -0.47810E-01  1728   0.962E-01    0.231E-01
RMM:   2    -0.117278584661E+04   -0.61810E-03   -0.10193E-02  1605   0.128E-01    0.201E-01
RMM:   3    -0.117278546901E+04    0.37760E-03   -0.57478E-04  1277   0.282E-02    0.165E-01
RMM:   4    -0.117278523660E+04    0.23241E-03   -0.73900E-04  1540   0.298E-02    0.989E-02
RMM:   5    -0.117278525664E+04   -0.20042E-04   -0.43989E-04  1279   0.236E-02
   6 F= -.11798991E+04 E0= -.11798991E+04  d E =-.174748E-02  mag=     1.0000
       N       E                     dE             d eps       ncg     rms          rms(c)
DAV:   1    -0.117278526925E+04   -0.32647E-04   -0.17486E-03  1872   0.594E-02    0.284E-02
RMM:   2    -0.117278526041E+04    0.88404E-05   -0.34932E-05   984   0.789E-03
   7 F= -.11798991E+04 E0= -.11798991E+04  d E =-.173714E-02  mag=     1.0000
       N       E                     dE             d eps       ncg     rms          rms(c)
DAV:   1    -0.117278580990E+04   -0.54065E-03   -0.26946E-01  1656   0.727E-01    0.151E-01
RMM:   2    -0.117278620182E+04   -0.39192E-03   -0.53119E-03  1590   0.945E-02    0.138E-01
RMM:   3    -0.117278609728E+04    0.10454E-03   -0.24197E-04  1155   0.196E-02    0.120E-01
RMM:   4    -0.117278607292E+04    0.24362E-04   -0.37852E-04  1234   0.213E-02
   8 F= -.11799001E+04 E0= -.11799001E+04  d E =-.942603E-03  mag=     1.0000
       N       E                     dE             d eps       ncg     rms          rms(c)
DAV:   1    -0.117278603738E+04    0.59909E-04   -0.26776E-02  1656   0.229E-01    0.657E-02
RMM:   2    -0.117278606793E+04   -0.30558E-04   -0.50391E-04  1164   0.295E-02
   9 F= -.11799001E+04 E0= -.11799001E+04  d E =-.980627E-03  mag=     1.0000
