       N       E                     dE             d eps       ncg     rms          rms(c)
DAV:   1     0.492797033550E+04    0.49280E+04   -0.16956E+05  1800   0.907E+02
DAV:   2    -0.536309717768E+02   -0.49816E+04   -0.45298E+04  2520   0.209E+02
DAV:   3    -0.119195965681E+04   -0.11383E+04   -0.11332E+04  2088   0.110E+02
DAV:   4    -0.123799505523E+04   -0.46035E+02   -0.45824E+02  2016   0.297E+01
DAV:   5    -0.123922683864E+04   -0.12318E+01   -0.12299E+01  2412   0.457E+00    0.678E+01
RMM:   6    -0.121748421582E+04    0.21743E+02   -0.23497E+01  1584   0.458E+00    0.551E+01
RMM:   7    -0.120272303209E+04    0.14761E+02   -0.97922E+00  1584   0.353E+00    0.413E+01
RMM:   8    -0.118199433201E+04    0.20729E+02   -0.19536E+01  1584   0.505E+00    0.300E+01
RMM:   9    -0.116893663516E+04    0.13058E+02   -0.20970E+01  1584   0.521E+00    0.209E+01
RMM:  10    -0.116793850392E+04    0.99813E+00   -0.18079E+01  1584   0.481E+00    0.107E+01
RMM:  11    -0.116846228023E+04   -0.52378E+00   -0.15446E+00  1604   0.153E+00    0.711E+00
RMM:  12    -0.116790967592E+04    0.55260E+00   -0.42252E-01  1584   0.719E-01    0.496E+00
RMM:  13    -0.116766373056E+04    0.24595E+00   -0.90976E-01  1584   0.106E+00    0.190E+00
RMM:  14    -0.116763036377E+04    0.33367E-01   -0.82408E-02  1596   0.307E-01    0.730E-01
RMM:  15    -0.116763039863E+04   -0.34862E-04   -0.31385E-02  1584   0.201E-01    0.331E-01
RMM:  16    -0.116762991475E+04    0.48388E-03   -0.38292E-03  1585   0.740E-02    0.252E-01
RMM:  17    -0.116762970206E+04    0.21269E-03   -0.35477E-04  1210   0.233E-02    0.183E-01
RMM:  18    -0.116763000270E+04   -0.30065E-03   -0.19166E-03  1584   0.516E-02    0.138E-01
RMM:  19    -0.116762969322E+04    0.30949E-03   -0.95283E-04  1570   0.342E-02    0.555E-02
RMM:  20    -0.116762970979E+04   -0.16574E-04   -0.22166E-05  1013   0.672E-03
   1 F= -.11749405E+04 E0= -.11749405E+04  d E =-.117494E+04  mag=    -0.0000
       N       E                     dE             d eps       ncg     rms          rms(c)
DAV:   1    -0.116762426506E+04    0.54282E-02   -0.22547E+00  1656   0.179E+00    0.900E-01
RMM:   2    -0.116762685132E+04   -0.25863E-02   -0.51006E-02  1584   0.254E-01    0.926E-01
RMM:   3    -0.116762667981E+04    0.17151E-03   -0.22295E-03  1550   0.507E-02    0.882E-01
RMM:   4    -0.116762544062E+04    0.12392E-02   -0.32054E-03  1584   0.604E-02    0.504E-01
RMM:   5    -0.116762596092E+04   -0.52029E-03   -0.40729E-03  1584   0.685E-02    0.155E-01
RMM:   6    -0.116762562533E+04    0.33559E-03   -0.24927E-04  1123   0.186E-02    0.935E-02
RMM:   7    -0.116762544994E+04    0.17539E-03   -0.52466E-04  1365   0.240E-02    0.428E-02
RMM:   8    -0.116762543034E+04    0.19603E-04   -0.74143E-05  1006   0.109E-02
   2 F= -.11749378E+04 E0= -.11749378E+04  d E =0.269483E-02  mag=     0.0000
       N       E                     dE             d eps       ncg     rms          rms(c)
DAV:   1    -0.116763084508E+04   -0.53951E-02   -0.83914E-01  1620   0.109E+00    0.553E-01
RMM:   2    -0.116763179538E+04   -0.95030E-03   -0.19209E-02  1584   0.152E-01    0.579E-01
RMM:   3    -0.116763174696E+04    0.48424E-04   -0.81404E-04  1285   0.295E-02
   3 F= -.11749432E+04 E0= -.11749432E+04  d E =-.265362E-02  mag=    -0.0000
       N       E                     dE             d eps       ncg     rms          rms(c)
DAV:   1    -0.116763045948E+04    0.13359E-02   -0.80778E-01  1620   0.120E+00    0.211E-01
RMM:   2    -0.116763157627E+04   -0.11168E-02   -0.13738E-02  1584   0.146E-01    0.179E-01
RMM:   3    -0.116763138410E+04    0.19217E-03   -0.50532E-04  1248   0.283E-02    0.161E-01
RMM:   4    -0.116763099979E+04    0.38431E-03   -0.88264E-04  1552   0.347E-02    0.763E-02
RMM:   5    -0.116763096966E+04    0.30126E-04   -0.22611E-04  1079   0.192E-02
   4 F= -.11749424E+04 E0= -.11749424E+04  d E =0.785890E-03  mag=    -0.0000
       N       E                     dE             d eps       ncg     rms          rms(c)
DAV:   1    -0.116763166064E+04   -0.66085E-03   -0.34367E-01  1728   0.790E-01    0.265E-01
RMM:   2    -0.116763210725E+04   -0.44661E-03   -0.61990E-03  1584   0.968E-02    0.249E-01
RMM:   3    -0.116763199802E+04    0.10923E-03   -0.21442E-04  1110   0.190E-02    0.213E-01
RMM:   4    -0.116763193588E+04    0.62146E-04   -0.11264E-03  1552   0.381E-02    0.525E-02
RMM:   5    -0.116763192869E+04    0.71837E-05   -0.36918E-05   979   0.914E-03
   5 F= -.11749434E+04 E0= -.11749434E+04  d E =-.178834E-03  mag=    -0.0000
