       N       E                     dE             d eps       ncg     rms          rms(c)
DAV:   1     0.479683968046E+04    0.47968E+04   -0.17098E+05  1872   0.901E+02
DAV:   2    -0.761653801358E+02   -0.48730E+04   -0.44183E+04  2520   0.203E+02
DAV:   3    -0.119193882403E+04   -0.11158E+04   -0.11114E+04  2124   0.107E+02
DAV:   4    -0.123688560137E+04   -0.44947E+02   -0.44740E+02  2088   0.284E+01
DAV:   5    -0.123803851723E+04   -0.11529E+01   -0.11511E+01  2412   0.421E+00    0.630E+01
RMM:   6    -0.122467941624E+04    0.13359E+02   -0.78976E+00  1585   0.309E+00    0.514E+01
RMM:   7    -0.118233913540E+04    0.42340E+02   -0.77371E+01  1590   0.950E+00    0.284E+01
RMM:   8    -0.117263332680E+04    0.97058E+01   -0.30155E+01  1585   0.620E+00    0.155E+01
RMM:   9    -0.117323939985E+04   -0.60607E+00   -0.14358E+01  1584   0.430E+00    0.923E+00
RMM:  10    -0.117259654092E+04    0.64286E+00   -0.12587E+00  1602   0.128E+00    0.471E+00
RMM:  11    -0.117218858934E+04    0.40795E+00   -0.12487E+00  1584   0.122E+00    0.148E+00
RMM:  12    -0.117216718539E+04    0.21404E-01   -0.13665E-01  1590   0.377E-01    0.655E-01
RMM:  13    -0.117215808835E+04    0.90970E-02   -0.43575E-02  1601   0.217E-01    0.265E-01
RMM:  14    -0.117215864023E+04   -0.55188E-03   -0.43036E-03  1636   0.753E-02    0.193E-01
RMM:  15    -0.117215935356E+04   -0.71333E-03   -0.24091E-03  1574   0.526E-02    0.130E-01
RMM:  16    -0.117215986859E+04   -0.51503E-03   -0.10991E-03  1573   0.398E-02    0.824E-02
RMM:  17    -0.117215996320E+04   -0.94610E-04   -0.76499E-04  1502   0.328E-02
   1 F= -.11794299E+04 E0= -.11794263E+04  d E =-.117943E+04  mag=    -0.9197
       N       E                     dE             d eps       ncg     rms          rms(c)
DAV:   1    -0.117215882973E+04    0.10389E-02   -0.33228E-01  1728   0.939E-01    0.178E-01
RMM:   2    -0.117215985894E+04   -0.10292E-02   -0.12906E-02  1619   0.152E-01    0.171E-01
RMM:   3    -0.117215964998E+04    0.20895E-03   -0.71743E-04  1458   0.336E-02    0.158E-01
RMM:   4    -0.117215909683E+04    0.55316E-03   -0.33517E-03  1584   0.614E-02    0.587E-02
RMM:   5    -0.117215906539E+04    0.31433E-04   -0.10435E-04  1064   0.150E-02
   2 F= -.11794293E+04 E0= -.11794255E+04  d E =0.616380E-03  mag=    -0.8954
       N       E                     dE             d eps       ncg     rms          rms(c)
DAV:   1    -0.117216071933E+04   -0.16225E-02   -0.12500E-01  1656   0.574E-01    0.979E-02
RMM:   2    -0.117216091385E+04   -0.19452E-03   -0.33189E-03  1614   0.816E-02    0.923E-02
RMM:   3    -0.117216078763E+04    0.12622E-03   -0.16641E-04  1108   0.179E-02    0.802E-02
RMM:   4    -0.117216058785E+04    0.19979E-03   -0.11076E-03  1579   0.362E-02    0.288E-02
RMM:   5    -0.117216057938E+04    0.84704E-05   -0.21393E-05  1005   0.748E-03
   3 F= -.11794306E+04 E0= -.11794269E+04  d E =-.722429E-03  mag=    -0.8966
