       N       E                     dE             d eps       ncg     rms          rms(c)
DAV:   1     0.490482130713E+04    0.49048E+04   -0.17594E+05  1872   0.916E+02
DAV:   2    -0.514367902230E+02   -0.49563E+04   -0.45249E+04  2520   0.211E+02
DAV:   3    -0.119260373979E+04   -0.11412E+04   -0.11362E+04  2088   0.111E+02
DAV:   4    -0.123996822745E+04   -0.47364E+02   -0.47117E+02  2088   0.303E+01
DAV:   5    -0.124120543272E+04   -0.12372E+01   -0.12333E+01  2268   0.462E+00    0.776E+01
RMM:   6    -0.122826581398E+04    0.12940E+02   -0.11767E+02  1667   0.146E+01    0.828E+01
RMM:   7    -0.121428866418E+04    0.13977E+02   -0.62141E+00  1595   0.407E+00    0.647E+01
RMM:   8    -0.119579953383E+04    0.18489E+02   -0.23872E+01  1584   0.568E+00    0.533E+01
RMM:   9    -0.117637461187E+04    0.19425E+02   -0.20662E+01  1586   0.564E+00    0.270E+01
RMM:  10    -0.117084245902E+04    0.55322E+01   -0.60102E+00  1584   0.312E+00    0.218E+01
RMM:  11    -0.116754719978E+04    0.32953E+01   -0.27268E+01  1584   0.614E+00    0.114E+01
RMM:  12    -0.116791789414E+04   -0.37069E+00   -0.18346E+00  1628   0.218E+00    0.813E+00
RMM:  13    -0.116763535440E+04    0.28254E+00   -0.19947E-01  1591   0.592E-01    0.755E+00
RMM:  14    -0.116693740267E+04    0.69795E+00   -0.12977E+00  1584   0.129E+00    0.481E+00
RMM:  15    -0.116696093821E+04   -0.23536E-01   -0.42541E-02  1624   0.387E-01    0.327E+00
RMM:  16    -0.116694348310E+04    0.17455E-01   -0.49456E-02  1616   0.262E-01    0.182E+00
RMM:  17    -0.116693488219E+04    0.86009E-02   -0.26304E-02  1598   0.198E-01    0.130E+00
RMM:  18    -0.116693130642E+04    0.35758E-02   -0.61114E-03  1591   0.111E-01    0.968E-01
RMM:  19    -0.116692757221E+04    0.37342E-02   -0.32841E-03  1566   0.544E-02    0.680E-01
RMM:  20    -0.116692494131E+04    0.26309E-02   -0.26875E-03  1527   0.531E-02    0.344E-01
RMM:  21    -0.116692433558E+04    0.60573E-03   -0.12476E-03  1249   0.355E-02    0.162E-01
RMM:  22    -0.116692428198E+04    0.53595E-04   -0.12761E-03  1414   0.355E-02    0.985E-02
RMM:  23    -0.116692427190E+04    0.10088E-04   -0.90087E-05  1062   0.189E-02
   1 F= -.11739546E+04 E0= -.11739546E+04  d E =-.117395E+04  mag=    -0.0124
       N       E                     dE             d eps       ncg     rms          rms(c)
DAV:   1    -0.116692182892E+04    0.24531E-02   -0.55611E-01  1656   0.142E+00    0.225E-01
RMM:   2    -0.116692415052E+04   -0.23216E-02   -0.28623E-02  1645   0.252E-01    0.208E-01
RMM:   3    -0.116692380983E+04    0.34069E-03   -0.17227E-03  1704   0.748E-02    0.214E-01
RMM:   4    -0.116692383029E+04   -0.20459E-04   -0.19996E-04  1092   0.205E-02
   2 F= -.11739544E+04 E0= -.11739544E+04  d E =0.150903E-03  mag=    -0.0007
       N       E                     dE             d eps       ncg     rms          rms(c)
DAV:   1    -0.116692404814E+04   -0.23831E-03   -0.17874E-01  1656   0.797E-01    0.140E-01
RMM:   2    -0.116692497768E+04   -0.92954E-03   -0.88943E-03  1595   0.146E-01    0.655E-02
RMM:   3    -0.116692492832E+04    0.49364E-04   -0.46821E-04  1221   0.411E-02
   3 F= -.11739554E+04 E0= -.11739554E+04  d E =-.785988E-03  mag=    -0.0000
