       N       E                     dE             d eps       ncg     rms          rms(c)
DAV:   1     0.476733862867E+04    0.47673E+04   -0.17836E+05  1908   0.923E+02
DAV:   2    -0.890158432233E+02   -0.48564E+04   -0.44430E+04  2520   0.207E+02
DAV:   3    -0.120216611309E+04   -0.11132E+04   -0.11086E+04  2052   0.109E+02
DAV:   4    -0.124754742032E+04   -0.45381E+02   -0.45127E+02  2016   0.294E+01
DAV:   5    -0.124872043991E+04   -0.11730E+01   -0.11697E+01  2304   0.440E+00    0.714E+01
RMM:   6    -0.122836029981E+04    0.20360E+02   -0.26301E+01  1794   0.480E+00    0.569E+01
RMM:   7    -0.120807020721E+04    0.20290E+02   -0.16512E+01  1592   0.464E+00    0.422E+01
RMM:   8    -0.118122789937E+04    0.26842E+02   -0.47443E+01  1588   0.777E+00    0.256E+01
RMM:   9    -0.117891445608E+04    0.23134E+01   -0.36080E+01  1586   0.670E+00    0.121E+01
RMM:  10    -0.117873788656E+04    0.17657E+00   -0.26724E+00  1750   0.205E+00    0.809E+00
RMM:  11    -0.117827585520E+04    0.46203E+00   -0.39331E-01  1764   0.694E-01    0.613E+00
RMM:  12    -0.117769352843E+04    0.58233E+00   -0.24005E+00  1587   0.165E+00    0.129E+00
RMM:  13    -0.117764083788E+04    0.52691E-01   -0.13639E-01  1765   0.468E-01    0.799E-01
RMM:  14    -0.117763402963E+04    0.68083E-02   -0.32807E-02  1786   0.188E-01    0.461E-01
RMM:  15    -0.117763325747E+04    0.77217E-03   -0.74461E-03  1699   0.107E-01    0.344E-01
RMM:  16    -0.117763206234E+04    0.11951E-02   -0.45991E-03  1679   0.722E-02    0.221E-01
RMM:  17    -0.117763222493E+04   -0.16259E-03   -0.16576E-03  1558   0.456E-02    0.107E-01
RMM:  18    -0.117763219801E+04    0.26913E-04   -0.24532E-04  1157   0.209E-02
   1 F= -.11849650E+04 E0= -.11849650E+04  d E =-.118496E+04  mag=     0.0020
       N       E                     dE             d eps       ncg     rms          rms(c)
DAV:   1    -0.117763015785E+04    0.20671E-02   -0.31696E-01  1764   0.970E-01    0.173E-01
RMM:   2    -0.117763204561E+04   -0.18878E-02   -0.21708E-02  1881   0.196E-01    0.146E-01
RMM:   3    -0.117763195354E+04    0.92072E-04   -0.13091E-03  1471   0.541E-02    0.189E-01
RMM:   4    -0.117763196650E+04   -0.12961E-04   -0.16533E-04  1079   0.169E-02
   2 F= -.11849653E+04 E0= -.11849653E+04  d E =-.294119E-03  mag=     0.0008
       N       E                     dE             d eps       ncg     rms          rms(c)
DAV:   1    -0.117763220803E+04   -0.25449E-03   -0.49127E-02  1692   0.381E-01    0.176E-01
RMM:   2    -0.117763250915E+04   -0.30112E-03   -0.31869E-03  1873   0.764E-02    0.127E-01
RMM:   3    -0.117763248951E+04    0.19633E-04   -0.24879E-04  1118   0.240E-02
   3 F= -.11849656E+04 E0= -.11849656E+04  d E =-.609463E-03  mag=    -0.0001
