       N       E                     dE             d eps       ncg     rms          rms(c)
DAV:   1     0.453645362986E+04    0.45365E+04   -0.17646E+05  1944   0.908E+02
DAV:   2    -0.120774392223E+03   -0.46572E+04   -0.42306E+04  2520   0.201E+02
DAV:   3    -0.119347741818E+04   -0.10727E+04   -0.10682E+04  2124   0.106E+02
DAV:   4    -0.123579089686E+04   -0.42313E+02   -0.42099E+02  2088   0.277E+01
DAV:   5    -0.123688399936E+04   -0.10931E+01   -0.10910E+01  2376   0.421E+00    0.672E+01
RMM:   6    -0.121837916912E+04    0.18505E+02   -0.29029E+01  1765   0.488E+00    0.541E+01
RMM:   7    -0.120196120825E+04    0.16418E+02   -0.10472E+01  1626   0.357E+00    0.430E+01
RMM:   8    -0.117358248704E+04    0.28379E+02   -0.43548E+01  1592   0.739E+00    0.264E+01
RMM:   9    -0.116609761617E+04    0.74849E+01   -0.17799E+01  1599   0.477E+00    0.185E+01
RMM:  10    -0.116712783746E+04   -0.10302E+01   -0.12779E+01  1600   0.398E+00    0.906E+00
RMM:  11    -0.116697923975E+04    0.14860E+00   -0.12256E+00  1688   0.140E+00    0.713E+00
RMM:  12    -0.116653928197E+04    0.43996E+00   -0.17208E+00  1596   0.131E+00    0.359E+00
RMM:  13    -0.116616528317E+04    0.37400E+00   -0.53247E-01  1654   0.767E-01    0.216E+00
RMM:  14    -0.116608072309E+04    0.84560E-01   -0.13180E-01  1746   0.399E-01    0.723E-01
RMM:  15    -0.116607750284E+04    0.32203E-02   -0.36855E-02  1794   0.212E-01    0.426E-01
RMM:  16    -0.116607759558E+04   -0.92740E-04   -0.43785E-03  1716   0.883E-02    0.398E-01
RMM:  17    -0.116607594328E+04    0.16523E-02   -0.35699E-03  1751   0.592E-02    0.211E-01
RMM:  18    -0.116607626652E+04   -0.32324E-03   -0.70253E-04  1332   0.329E-02    0.119E-01
RMM:  19    -0.116607635644E+04   -0.89924E-04   -0.49450E-04  1233   0.231E-02
   1 F= -.11733061E+04 E0= -.11733061E+04  d E =-.117331E+04  mag=    -0.0079
       N       E                     dE             d eps       ncg     rms          rms(c)
DAV:   1    -0.116607317162E+04    0.30949E-02   -0.35547E-01  1620   0.989E-01    0.202E-01
RMM:   2    -0.116607601826E+04   -0.28466E-02   -0.31053E-02  1834   0.203E-01    0.187E-01
RMM:   3    -0.116607608758E+04   -0.69316E-04   -0.20853E-03  1441   0.570E-02    0.261E-01
RMM:   4    -0.116607610759E+04   -0.20011E-04   -0.28564E-04  1122   0.179E-02
   2 F= -.11733060E+04 E0= -.11733060E+04  d E =0.771180E-04  mag=    -0.0035
       N       E                     dE             d eps       ncg     rms          rms(c)
DAV:   1    -0.116607609018E+04   -0.26069E-05   -0.87022E-02  1620   0.489E-01    0.268E-01
RMM:   2    -0.116607680182E+04   -0.71163E-03   -0.74230E-03  1826   0.996E-02    0.169E-01
RMM:   3    -0.116607682562E+04   -0.23808E-04   -0.53176E-04  1171   0.287E-02
   3 F= -.11733066E+04 E0= -.11733066E+04  d E =-.554794E-03  mag=     0.0005
