       N       E                     dE             d eps       ncg     rms          rms(c)
DAV:   1     0.499160471484E+04    0.49916E+04   -0.17152E+05  1800   0.915E+02
DAV:   2    -0.286373565992E+02   -0.50202E+04   -0.46043E+04  2556   0.211E+02
DAV:   3    -0.117347672934E+04   -0.11448E+04   -0.11393E+04  2124   0.111E+02
DAV:   4    -0.122001306541E+04   -0.46536E+02   -0.46317E+02  2016   0.293E+01
DAV:   5    -0.122119936921E+04   -0.11863E+01   -0.11841E+01  2376   0.430E+00    0.603E+01
RMM:   6    -0.120978664556E+04    0.11413E+02   -0.72061E+00  1584   0.305E+00    0.503E+01
RMM:   7    -0.119355546205E+04    0.16231E+02   -0.11725E+01  1584   0.395E+00    0.407E+01
RMM:   8    -0.116648248507E+04    0.27073E+02   -0.35148E+01  1584   0.682E+00    0.283E+01
RMM:   9    -0.116239521399E+04    0.40873E+01   -0.38175E+01  1584   0.700E+00    0.258E+01
RMM:  10    -0.115969316075E+04    0.27021E+01   -0.17454E+00  1616   0.165E+00    0.141E+01
RMM:  11    -0.116022379617E+04   -0.53064E+00   -0.71882E-01  1584   0.100E+00    0.138E+01
RMM:  12    -0.115996029021E+04    0.26351E+00   -0.25302E+00  1584   0.125E+00    0.104E+01
RMM:  13    -0.115961040186E+04    0.34989E+00   -0.79418E-01  1590   0.604E-01    0.779E+00
RMM:  14    -0.115917469704E+04    0.43570E+00   -0.49008E-01  1587   0.481E-01    0.559E+00
RMM:  15    -0.115922982356E+04   -0.55127E-01   -0.35226E-02  1636   0.138E-01    0.530E+00
RMM:  16    -0.115929026541E+04   -0.60442E-01   -0.13477E-02  1538   0.844E-02    0.468E+00
RMM:  17    -0.115941242775E+04   -0.12216E+00   -0.38692E-01  1584   0.525E-01    0.161E+00
RMM:  18    -0.115942270400E+04   -0.10276E-01   -0.38776E-02  1588   0.194E-01    0.139E+00
RMM:  19    -0.115938813060E+04    0.34573E-01   -0.33450E-02  1584   0.174E-01    0.115E+00
RMM:  20    -0.115938525128E+04    0.28793E-02   -0.58130E-03  1594   0.665E-02    0.905E-01
RMM:  21    -0.115937011230E+04    0.15139E-01   -0.11492E-02  1558   0.820E-02    0.906E-01
RMM:  22    -0.115936983623E+04    0.27607E-03   -0.58208E-04  1134   0.198E-02    0.932E-01
RMM:  23    -0.115937178688E+04   -0.19507E-02   -0.10787E-03  1161   0.222E-02    0.818E-01
RMM:  24    -0.115938016050E+04   -0.83736E-02   -0.11958E-02  1526   0.738E-02    0.307E-01
RMM:  25    -0.115938233666E+04   -0.21762E-02   -0.19756E-03  1363   0.352E-02    0.219E-01
RMM:  26    -0.115938247237E+04   -0.13572E-03   -0.76278E-04  1159   0.242E-02    0.195E-01
RMM:  27    -0.115938260893E+04   -0.13656E-03   -0.40546E-04  1050   0.161E-02    0.200E-01
RMM:  28    -0.115938249475E+04    0.11418E-03   -0.11596E-04  1011   0.922E-03    0.203E-01
RMM:  29    -0.115938334161E+04   -0.84686E-03   -0.18861E-03  1111   0.267E-02    0.188E-01
RMM:  30    -0.115938390789E+04   -0.56628E-03   -0.19382E-03  1081   0.240E-02    0.157E-01
RMM:  31    -0.115938332442E+04    0.58346E-03   -0.51907E-03  1154   0.374E-02    0.122E-01
RMM:  32    -0.115938561640E+04   -0.22920E-02   -0.11316E-03  1073   0.206E-02    0.114E-01
RMM:  33    -0.115938318725E+04    0.24291E-02   -0.75699E-03  1197   0.468E-02    0.117E-01
RMM:  34    -0.115938707801E+04   -0.38908E-02   -0.32241E-04  1035   0.182E-02    0.104E-01
RMM:  35    -0.115938704324E+04    0.34774E-04   -0.43485E-05   795   0.576E-03
   1 F= -.11665078E+04 E0= -.11665078E+04  d E =-.116651E+04  mag=    -0.0065
       N       E                     dE             d eps       ncg     rms          rms(c)
DAV:   1    -0.115938083299E+04    0.62450E-02   -0.41523E+00  1620   0.205E+00    0.697E-01
RMM:   2    -0.115938669056E+04   -0.58576E-02   -0.59012E-02  1590   0.257E-01    0.520E-01
RMM:   3    -0.115938789531E+04   -0.12047E-02   -0.32734E-03  1549   0.548E-02    0.370E-01
RMM:   4    -0.115938826248E+04   -0.36717E-03   -0.16550E-03  1500   0.390E-02    0.278E-01
RMM:   5    -0.115938857005E+04   -0.30757E-03   -0.83706E-04  1164   0.276E-02    0.230E-01
RMM:   6    -0.115938859532E+04   -0.25268E-04   -0.12975E-04  1027   0.133E-02
   2 F= -.11665105E+04 E0= -.11665105E+04  d E =-.267214E-02  mag=    -0.0000
       N       E                     dE             d eps       ncg     rms          rms(c)
DAV:   1    -0.115938912416E+04   -0.55411E-03   -0.59188E-01  1692   0.777E-01    0.300E-01
RMM:   2    -0.115939031438E+04   -0.11902E-02   -0.83093E-03  1584   0.958E-02    0.256E-01
RMM:   3    -0.115939067272E+04   -0.35834E-03   -0.41391E-04  1060   0.202E-02    0.238E-01
RMM:   4    -0.115939079863E+04   -0.12591E-03   -0.27269E-04  1021   0.162E-02    0.235E-01
RMM:   5    -0.115939057701E+04    0.22162E-03   -0.40814E-05   997   0.866E-03    0.235E-01
RMM:   6    -0.115939044436E+04    0.13265E-03   -0.12074E-05   875   0.528E-03    0.235E-01
RMM:   7    -0.115938715854E+04    0.32858E-02   -0.33110E-03  1236   0.401E-02    0.236E-01
RMM:   8    -0.115938909767E+04   -0.19391E-02   -0.42650E-04  1031   0.178E-02    0.237E-01
RMM:   9    -0.115938920221E+04   -0.10454E-03   -0.55120E-03  1173   0.472E-02    0.216E-01
RMM:  10    -0.115936459484E+04    0.24607E-01   -0.69722E-02  1393   0.141E-01    0.381E-01
RMM:  11    -0.115937908073E+04   -0.14486E-01   -0.64021E-03  1490   0.539E-02    0.388E-01
RMM:  12    -0.115938351577E+04   -0.44350E-02   -0.76631E-04  1068   0.212E-02    0.389E-01
RMM:  13    -0.115938566298E+04   -0.21472E-02   -0.98354E-03  1244   0.617E-02    0.162E-01
RMM:  14    -0.115938669964E+04   -0.10367E-02   -0.45042E-03  1135   0.370E-02    0.104E-01
RMM:  15    -0.115938768304E+04   -0.98340E-03   -0.45543E-03  1168   0.390E-02    0.521E-02
RMM:  16    -0.115939077416E+04   -0.30911E-02   -0.33133E-04  1064   0.213E-02    0.306E-02
RMM:  17    -0.115939077825E+04   -0.40959E-05   -0.39320E-05  1013   0.674E-03
   3 F= -.11665122E+04 E0= -.11665122E+04  d E =-.443123E-02  mag=     0.0000
       N       E                     dE             d eps       ncg     rms          rms(c)
DAV:   1    -0.115938554309E+04    0.52311E-02   -0.23156E+00  1692   0.165E+00    0.549E-01
RMM:   2    -0.115938950059E+04   -0.39575E-02   -0.38079E-02  1584   0.211E-01    0.415E-01
RMM:   3    -0.115939031303E+04   -0.81244E-03   -0.16817E-03  1461   0.446E-02    0.302E-01
RMM:   4    -0.115939035811E+04   -0.45077E-04   -0.14205E-03  1548   0.404E-02    0.197E-01
RMM:   5    -0.115939067415E+04   -0.31605E-03   -0.52695E-04  1263   0.266E-02    0.115E-01
RMM:   6    -0.115939076481E+04   -0.90659E-04   -0.11235E-04  1019   0.135E-02
   4 F= -.11665128E+04 E0= -.11665128E+04  d E =-.580161E-03  mag=     0.0000
       N       E                     dE             d eps       ncg     rms          rms(c)
DAV:   1    -0.115939152552E+04   -0.85137E-03   -0.52234E-01  1764   0.788E-01    0.268E-01
RMM:   2    -0.115939240030E+04   -0.87478E-03   -0.90690E-03  1584   0.100E-01    0.209E-01
RMM:   3    -0.115939256215E+04   -0.16185E-03   -0.38887E-04  1080   0.218E-02    0.168E-01
RMM:   4    -0.115939257529E+04   -0.13143E-04   -0.42931E-04  1102   0.233E-02
   5 F= -.11665143E+04 E0= -.11665143E+04  d E =-.210674E-02  mag=     0.0000
       N       E                     dE             d eps       ncg     rms          rms(c)
DAV:   1    -0.115939317661E+04   -0.61446E-03   -0.72124E-01  1728   0.956E-01    0.273E-01
RMM:   2    -0.115939407673E+04   -0.90012E-03   -0.99748E-03  1584   0.114E-01    0.214E-01
RMM:   3    -0.115939436431E+04   -0.28758E-03   -0.45037E-04  1150   0.252E-02    0.161E-01
RMM:   4    -0.115939439340E+04   -0.29089E-04   -0.41984E-04  1129   0.228E-02
   6 F= -.11665162E+04 E0= -.11665162E+04  d E =-.187905E-02  mag=     0.0000
       N       E                     dE             d eps       ncg     rms          rms(c)
DAV:   1    -0.115939308624E+04    0.12781E-02   -0.76192E-01  1728   0.983E-01    0.288E-01
RMM:   2    -0.115939382246E+04   -0.73622E-03   -0.10142E-02  1584   0.116E-01    0.226E-01
RMM:   3    -0.115939421749E+04   -0.39503E-03   -0.46064E-04  1163   0.258E-02    0.164E-01
RMM:   4    -0.115939434650E+04   -0.12901E-03   -0.34726E-04  1090   0.219E-02    0.103E-01
RMM:   5    -0.115939461769E+04   -0.27118E-03   -0.13154E-04  1028   0.150E-02    0.663E-02
RMM:   6    -0.115939462566E+04   -0.79717E-05   -0.21829E-05  1007   0.736E-03
   7 F= -.11665165E+04 E0= -.11665165E+04  d E =-.217480E-02  mag=     0.0000
       N       E                     dE             d eps       ncg     rms          rms(c)
DAV:   1    -0.115939525595E+04   -0.63827E-03   -0.37510E-01  1800   0.963E-01    0.171E-01
RMM:   2    -0.115939605999E+04   -0.80404E-03   -0.85097E-03  1589   0.142E-01    0.156E-01
RMM:   3    -0.115939597275E+04    0.87242E-04   -0.35373E-04  1194   0.255E-02
   8 F= -.11665182E+04 E0= -.11665182E+04  d E =-.163450E-02  mag=     0.0000
       N       E                     dE             d eps       ncg     rms          rms(c)
DAV:   1    -0.115939629291E+04   -0.23292E-03   -0.33025E-02  1800   0.287E-01    0.992E-02
RMM:   2    -0.115939639873E+04   -0.10581E-03   -0.12198E-03  1565   0.540E-02    0.974E-02
RMM:   3    -0.115939636872E+04    0.30006E-04   -0.39167E-05   980   0.946E-03
   9 F= -.11665185E+04 E0= -.11665185E+04  d E =-.195238E-02  mag=     0.0000
       N       E                     dE             d eps       ncg     rms          rms(c)
DAV:   1    -0.115939693991E+04   -0.54118E-03   -0.15701E-01  1728   0.481E-01    0.153E-01
RMM:   2    -0.115939714258E+04   -0.20267E-03   -0.22534E-03  1571   0.599E-02    0.141E-01
RMM:   3    -0.115939719279E+04   -0.50216E-04   -0.10101E-04  1005   0.131E-02
  10 F= -.11665193E+04 E0= -.11665193E+04  d E =-.851063E-03  mag=     0.0000
       N       E                     dE             d eps       ncg     rms          rms(c)
DAV:   1    -0.115939731958E+04   -0.17700E-03   -0.70665E-02  1728   0.320E-01    0.161E-01
RMM:   2    -0.115939729981E+04    0.19763E-04   -0.92447E-04  1298   0.384E-02
  11 F= -.11665194E+04 E0= -.11665194E+04  d E =-.976366E-03  mag=     0.0000
