       N       E                     dE             d eps       ncg     rms          rms(c)
DAV:   1     0.478242496516E+04    0.47824E+04   -0.18034E+05  1944   0.933E+02
DAV:   2    -0.758123478851E+02   -0.48582E+04   -0.44547E+04  2556   0.209E+02
DAV:   3    -0.120228695136E+04   -0.11265E+04   -0.11219E+04  2232   0.109E+02
DAV:   4    -0.124772000536E+04   -0.45433E+02   -0.45125E+02  2052   0.277E+01
DAV:   5    -0.124907121300E+04   -0.13512E+01   -0.13475E+01  2556   0.408E+00    0.637E+01
RMM:   6    -0.123585526329E+04    0.13216E+02   -0.76880E+00  1586   0.321E+00    0.525E+01
RMM:   7    -0.119164344447E+04    0.44212E+02   -0.81722E+01  1584   0.102E+01    0.289E+01
RMM:   8    -0.118611750834E+04    0.55259E+01   -0.13978E+01  1590   0.434E+00    0.192E+01
RMM:   9    -0.118474350848E+04    0.13740E+01   -0.24197E+01  1584   0.559E+00    0.943E+00
RMM:  10    -0.118434465849E+04    0.39885E+00   -0.12084E+00  1617   0.140E+00    0.503E+00
RMM:  11    -0.118392303997E+04    0.42162E+00   -0.15115E+00  1586   0.136E+00    0.263E+00
RMM:  12    -0.118376914668E+04    0.15389E+00   -0.41187E-01  1589   0.666E-01    0.583E-01
RMM:  13    -0.118376337237E+04    0.57743E-02   -0.73805E-02  1658   0.299E-01    0.407E-01
RMM:  14    -0.118375901950E+04    0.43529E-02   -0.10818E-02  1633   0.120E-01    0.200E-01
RMM:  15    -0.118375880710E+04    0.21241E-03   -0.44782E-03  1662   0.732E-02    0.148E-01
RMM:  16    -0.118375920291E+04   -0.39581E-03   -0.25924E-03  1617   0.609E-02    0.115E-01
RMM:  17    -0.118375905532E+04    0.14759E-03   -0.42951E-04  1373   0.243E-02    0.598E-02
RMM:  18    -0.118375909651E+04   -0.41189E-04   -0.48009E-05  1036   0.105E-02
   1 F= -.11909532E+04 E0= -.11909532E+04  d E =-.119095E+04  mag=     0.0009
       N       E                     dE             d eps       ncg     rms          rms(c)
DAV:   1    -0.118375415361E+04    0.49017E-02   -0.33761E+00  1620   0.271E+00    0.754E-01
RMM:   2    -0.118375966922E+04   -0.55156E-02   -0.79750E-02  1658   0.374E-01    0.695E-01
RMM:   3    -0.118375819478E+04    0.14744E-02   -0.55277E-03  1821   0.799E-02    0.622E-01
RMM:   4    -0.118375888304E+04   -0.68826E-03   -0.13264E-02  1590   0.121E-01    0.267E-01
RMM:   5    -0.118375810091E+04    0.78213E-03   -0.71985E-04  1370   0.302E-02    0.125E-01
RMM:   6    -0.118375791687E+04    0.18404E-03   -0.10122E-03  1517   0.291E-02    0.504E-02
RMM:   7    -0.118375792847E+04   -0.11602E-04   -0.10073E-04  1056   0.115E-02
   2 F= -.11909530E+04 E0= -.11909530E+04  d E =0.185587E-03  mag=    -0.0000
       N       E                     dE             d eps       ncg     rms          rms(c)
DAV:   1    -0.118376224650E+04   -0.43296E-02   -0.88689E-01  1656   0.139E+00    0.388E-01
RMM:   2    -0.118376329118E+04   -0.10447E-02   -0.17689E-02  1634   0.181E-01    0.357E-01
RMM:   3    -0.118376288124E+04    0.40994E-03   -0.11066E-03  1461   0.370E-02    0.311E-01
RMM:   4    -0.118376330328E+04   -0.42204E-03   -0.33486E-03  1590   0.614E-02    0.121E-01
RMM:   5    -0.118376298384E+04    0.31945E-03   -0.30611E-04  1170   0.181E-02    0.498E-02
RMM:   6    -0.118376296552E+04    0.18317E-04   -0.15728E-04  1072   0.125E-02
   3 F= -.11909576E+04 E0= -.11909576E+04  d E =-.434008E-02  mag=     0.0000
       N       E                     dE             d eps       ncg     rms          rms(c)
DAV:   1    -0.118376212890E+04    0.85493E-03   -0.18707E+00  1620   0.181E+00    0.490E-01
RMM:   2    -0.118376414558E+04   -0.20167E-02   -0.35553E-02  1618   0.235E-01    0.423E-01
RMM:   3    -0.118376324159E+04    0.90399E-03   -0.19828E-03  1702   0.486E-02    0.349E-01
RMM:   4    -0.118376397527E+04   -0.73369E-03   -0.54061E-03  1610   0.789E-02    0.138E-01
RMM:   5    -0.118376364281E+04    0.33247E-03   -0.42269E-04  1211   0.207E-02    0.724E-02
RMM:   6    -0.118376365307E+04   -0.10260E-04   -0.25094E-04  1121   0.157E-02
   4 F= -.11909592E+04 E0= -.11909592E+04  d E =-.167144E-02  mag=    -0.0000
       N       E                     dE             d eps       ncg     rms          rms(c)
DAV:   1    -0.118376460518E+04   -0.96237E-03   -0.26534E-01  1728   0.682E-01    0.186E-01
RMM:   2    -0.118376479450E+04   -0.18932E-03   -0.50398E-03  1606   0.883E-02    0.161E-01
RMM:   3    -0.118376461620E+04    0.17830E-03   -0.24674E-04  1132   0.190E-02    0.132E-01
RMM:   4    -0.118376473644E+04   -0.12024E-03   -0.99086E-04  1562   0.344E-02    0.561E-02
RMM:   5    -0.118376468423E+04    0.52207E-04   -0.82697E-05  1018   0.996E-03
   5 F= -.11909599E+04 E0= -.11909599E+04  d E =-.233004E-02  mag=    -0.0000
       N       E                     dE             d eps       ncg     rms          rms(c)
DAV:   1    -0.118376368886E+04    0.10476E-02   -0.10946E+00  1692   0.139E+00    0.316E-01
RMM:   2    -0.118376474298E+04   -0.10541E-02   -0.19575E-02  1618   0.179E-01    0.264E-01
RMM:   3    -0.118376430435E+04    0.43863E-03   -0.10781E-03  1436   0.363E-02    0.213E-01
RMM:   4    -0.118376481556E+04   -0.51121E-03   -0.31807E-03  1608   0.617E-02    0.716E-02
RMM:   5    -0.118376465235E+04    0.16321E-03   -0.13137E-04  1060   0.131E-02    0.561E-02
RMM:   6    -0.118376466720E+04   -0.14850E-04   -0.34998E-04  1290   0.181E-02
   6 F= -.11909606E+04 E0= -.11909606E+04  d E =-.670069E-03  mag=     0.0000
       N       E                     dE             d eps       ncg     rms          rms(c)
DAV:   1    -0.118376532963E+04   -0.67728E-03   -0.18117E-01  1728   0.568E-01    0.131E-01
RMM:   2    -0.118376547063E+04   -0.14100E-03   -0.36039E-03  1588   0.772E-02    0.111E-01
RMM:   3    -0.118376534815E+04    0.12249E-03   -0.15845E-04  1062   0.157E-02    0.895E-02
RMM:   4    -0.118376544742E+04   -0.99271E-04   -0.77306E-04  1518   0.304E-02
   7 F= -.11909611E+04 E0= -.11909611E+04  d E =-.116964E-02  mag=    -0.0000
       N       E                     dE             d eps       ncg     rms          rms(c)
DAV:   1    -0.118376527944E+04    0.68709E-04   -0.51554E-01  1728   0.103E+00    0.178E-01
RMM:   2    -0.118376587534E+04   -0.59591E-03   -0.95904E-03  1590   0.130E-01    0.145E-01
RMM:   3    -0.118376566163E+04    0.21372E-03   -0.39312E-04  1230   0.256E-02    0.120E-01
RMM:   4    -0.118376586001E+04   -0.19839E-03   -0.11267E-03  1524   0.367E-02    0.461E-02
RMM:   5    -0.118376583334E+04    0.26674E-04   -0.38437E-05  1014   0.897E-03
   8 F= -.11909617E+04 E0= -.11909617E+04  d E =-.641061E-03  mag=    -0.0000
       N       E                     dE             d eps       ncg     rms          rms(c)
DAV:   1    -0.118376593059E+04   -0.70580E-04   -0.30966E-02  1728   0.252E-01    0.441E-02
RMM:   2    -0.118376595350E+04   -0.22911E-04   -0.49981E-04  1126   0.302E-02
   9 F= -.11909618E+04 E0= -.11909618E+04  d E =-.697424E-03  mag=    -0.0000
