       N       E                     dE             d eps       ncg     rms          rms(c)
DAV:   1     0.455151046652E+04    0.45515E+04   -0.17872E+05  1920   0.944E+02
DAV:   2    -0.100913202994E+03   -0.46524E+04   -0.42373E+04  2432   0.207E+02
DAV:   3    -0.119964376764E+04   -0.10987E+04   -0.10938E+04  2048   0.109E+02
DAV:   4    -0.124433056917E+04   -0.44687E+02   -0.44436E+02  1952   0.290E+01
DAV:   5    -0.124543909707E+04   -0.11085E+01   -0.11062E+01  2368   0.418E+00    0.718E+01
RMM:   6    -0.122972109023E+04    0.15718E+02   -0.95410E+00  1603   0.370E+00    0.546E+01
RMM:   7    -0.119788791777E+04    0.31833E+02   -0.47942E+01  1561   0.830E+00    0.324E+01
RMM:   8    -0.118261575445E+04    0.15272E+02   -0.26136E+01  1543   0.673E+00    0.229E+01
RMM:   9    -0.117823686889E+04    0.43789E+01   -0.21496E+01  1552   0.611E+00    0.130E+01
RMM:  10    -0.117980211155E+04   -0.15652E+01   -0.67166E+00  1559   0.365E+00    0.780E+00
RMM:  11    -0.117909361326E+04    0.70850E+00   -0.87293E-01  1565   0.141E+00    0.562E+00
RMM:  12    -0.117866547758E+04    0.42814E+00   -0.14014E+00  1538   0.148E+00    0.152E+00
RMM:  13    -0.117868492106E+04   -0.19443E-01   -0.28060E-01  1547   0.778E-01    0.942E-01
RMM:  14    -0.117869472332E+04   -0.98023E-02   -0.37900E-02  1634   0.313E-01    0.617E-01
RMM:  15    -0.117870083821E+04   -0.61149E-02   -0.41173E-02  1574   0.280E-01    0.316E-01
RMM:  16    -0.117870124752E+04   -0.40931E-03   -0.63612E-03  1545   0.121E-01    0.256E-01
RMM:  17    -0.117870222086E+04   -0.97335E-03   -0.52426E-03  1667   0.908E-02    0.154E-01
RMM:  18    -0.117870226210E+04   -0.41238E-04   -0.22762E-03  1591   0.612E-02    0.885E-02
RMM:  19    -0.117870218495E+04    0.77148E-04   -0.73376E-04  1569   0.394E-02    0.922E-02
RMM:  20    -0.117870236740E+04   -0.18244E-03   -0.28681E-04  1784   0.217E-02    0.497E-02
RMM:  21    -0.117870241326E+04   -0.45867E-04   -0.12214E-04  1609   0.142E-02    0.244E-02
RMM:  22    -0.117870242018E+04   -0.69199E-05   -0.79417E-05  1589   0.115E-02    0.170E-02
RMM:  23    -0.117870242088E+04   -0.69962E-06   -0.14879E-05  1650   0.585E-03    0.769E-03
RMM:  24    -0.117870242169E+04   -0.81075E-06   -0.74636E-06  1428   0.345E-03
   1 F= -.11858641E+04 E0= -.11858638E+04  d E =-.118586E+04  mag=     1.9963
       N       E                     dE             d eps       ncg     rms          rms(c)
DAV:   1    -0.117870009552E+04    0.23254E-02   -0.47595E-01  1568   0.118E+00    0.178E-01
RMM:   2    -0.117870124471E+04   -0.11492E-02   -0.14176E-02  1686   0.192E-01    0.166E-01
RMM:   3    -0.117870130084E+04   -0.56127E-04   -0.32677E-03  1890   0.840E-02    0.150E-01
RMM:   4    -0.117870083147E+04    0.46937E-03   -0.18533E-03  1566   0.568E-02    0.684E-02
RMM:   5    -0.117870087516E+04   -0.43696E-04   -0.68311E-04  1702   0.350E-02    0.554E-02
RMM:   6    -0.117870081502E+04    0.60142E-04   -0.93395E-05  1602   0.140E-02    0.368E-02
RMM:   7    -0.117870081485E+04    0.16682E-06   -0.87285E-05  1575   0.113E-02    0.166E-02
RMM:   8    -0.117870081139E+04    0.34612E-05   -0.20365E-05  1675   0.629E-03    0.114E-02
RMM:   9    -0.117870081063E+04    0.75947E-06   -0.20915E-05  1569   0.556E-03    0.637E-03
RMM:  10    -0.117870080969E+04    0.94839E-06   -0.25233E-06  1070   0.244E-03
   2 F= -.11858631E+04 E0= -.11858628E+04  d E =0.101813E-02  mag=     1.9955
       N       E                     dE             d eps       ncg     rms          rms(c)
DAV:   1    -0.117870292869E+04   -0.21181E-02   -0.17184E-01  1696   0.708E-01    0.108E-01
RMM:   2    -0.117870322491E+04   -0.29622E-03   -0.40502E-03  1671   0.111E-01    0.994E-02
RMM:   3    -0.117870318511E+04    0.39804E-04   -0.86122E-04  1709   0.470E-02    0.847E-02
RMM:   4    -0.117870303617E+04    0.14893E-03   -0.72001E-04  1566   0.351E-02    0.365E-02
RMM:   5    -0.117870304591E+04   -0.97409E-05   -0.17700E-04  1924   0.183E-02    0.314E-02
RMM:   6    -0.117870303068E+04    0.15236E-04   -0.20594E-05  1595   0.652E-03    0.220E-02
RMM:   7    -0.117870302801E+04    0.26649E-05   -0.21519E-05  1542   0.573E-03    0.100E-02
RMM:   8    -0.117870302686E+04    0.11482E-05   -0.10739E-05  1609   0.406E-03    0.549E-03
RMM:   9    -0.117870302674E+04    0.12190E-06   -0.54491E-06  1503   0.289E-03
   3 F= -.11858650E+04 E0= -.11858647E+04  d E =-.841390E-03  mag=     1.9953
