       N       E                     dE             d eps       ncg     rms          rms(c)
DAV:   1     0.504460797978E+04    0.50446E+04   -0.17140E+05  1800   0.917E+02
DAV:   2    -0.616909102034E+01   -0.50508E+04   -0.46224E+04  2520   0.212E+02
DAV:   3    -0.117282707497E+04   -0.11667E+04   -0.11615E+04  2088   0.113E+02
DAV:   4    -0.122218401135E+04   -0.49357E+02   -0.49107E+02  2016   0.306E+01
DAV:   5    -0.122345299979E+04   -0.12690E+01   -0.12649E+01  2268   0.458E+00    0.606E+01
RMM:   6    -0.121164661757E+04    0.11806E+02   -0.78617E+00  1584   0.335E+00    0.497E+01
RMM:   7    -0.119095382847E+04    0.20693E+02   -0.17003E+01  1584   0.488E+00    0.371E+01
RMM:   8    -0.116812364990E+04    0.22830E+02   -0.29083E+01  1584   0.629E+00    0.258E+01
RMM:   9    -0.116185566850E+04    0.62680E+01   -0.30589E+01  1584   0.638E+00    0.125E+01
RMM:  10    -0.116285394443E+04   -0.99828E+00   -0.54567E+00  1591   0.292E+00    0.857E+00
RMM:  11    -0.116202552747E+04    0.82842E+00   -0.26433E+00  1584   0.171E+00    0.349E+00
RMM:  12    -0.116196581811E+04    0.59709E-01   -0.98057E-02  1606   0.495E-01    0.198E+00
RMM:  13    -0.116194298753E+04    0.22831E-01   -0.11436E-01  1584   0.337E-01    0.119E+00
RMM:  14    -0.116192823432E+04    0.14753E-01   -0.93047E-02  1584   0.355E-01    0.589E-01
RMM:  15    -0.116192806537E+04    0.16895E-03   -0.78989E-03  1708   0.117E-01    0.447E-01
RMM:  16    -0.116192668036E+04    0.13850E-02   -0.54443E-03  1584   0.908E-02    0.324E-01
RMM:  17    -0.116192685161E+04   -0.17125E-03   -0.18754E-03  1483   0.569E-02    0.247E-01
RMM:  18    -0.116192681996E+04    0.31647E-04   -0.23378E-03  1383   0.458E-02    0.140E-01
RMM:  19    -0.116192680082E+04    0.19146E-04   -0.54491E-04  1100   0.236E-02
   1 F= -.11689684E+04 E0= -.11689684E+04  d E =-.116897E+04  mag=     1.0018
       N       E                     dE             d eps       ncg     rms          rms(c)
DAV:   1    -0.116192509832E+04    0.17216E-02   -0.32176E-01  1728   0.913E-01    0.147E-01
RMM:   2    -0.116192599252E+04   -0.89419E-03   -0.10217E-02  1584   0.144E-01    0.145E-01
RMM:   3    -0.116192596898E+04    0.23541E-04   -0.61274E-04  1368   0.397E-02
   2 F= -.11689676E+04 E0= -.11689676E+04  d E =0.772826E-03  mag=     1.0004
       N       E                     dE             d eps       ncg     rms          rms(c)
DAV:   1    -0.116192674298E+04   -0.75046E-03   -0.12434E-01  1800   0.566E-01    0.843E-02
RMM:   2    -0.116192719314E+04   -0.45017E-03   -0.38063E-03  1584   0.910E-02    0.796E-02
RMM:   3    -0.116192722630E+04   -0.33161E-04   -0.19220E-04  1064   0.234E-02
   3 F= -.11689688E+04 E0= -.11689688E+04  d E =-.447413E-03  mag=     1.0003
