       N       E                     dE             d eps       ncg     rms          rms(c)
DAV:   1     0.512652422538E+04    0.51265E+04   -0.17337E+05  1800   0.921E+02
DAV:   2    -0.214451043925E+02   -0.51480E+04   -0.47202E+04  2592   0.214E+02
DAV:   3    -0.119578056033E+04   -0.11743E+04   -0.11698E+04  2124   0.113E+02
DAV:   4    -0.124452557898E+04   -0.48745E+02   -0.48463E+02  2052   0.299E+01
DAV:   5    -0.124602745451E+04   -0.15019E+01   -0.14977E+01  2484   0.453E+00    0.643E+01
RMM:   6    -0.123222779627E+04    0.13800E+02   -0.81589E+00  1586   0.328E+00    0.527E+01
RMM:   7    -0.118922317438E+04    0.43005E+02   -0.78342E+01  1586   0.997E+00    0.292E+01
RMM:   8    -0.118073601669E+04    0.84872E+01   -0.22807E+01  1590   0.553E+00    0.177E+01
RMM:   9    -0.118052276662E+04    0.21325E+00   -0.17143E+01  1585   0.470E+00    0.985E+00
RMM:  10    -0.118036712853E+04    0.15564E+00   -0.11998E+00  1643   0.133E+00    0.622E+00
RMM:  11    -0.117966380649E+04    0.70332E+00   -0.22653E+00  1584   0.171E+00    0.206E+00
RMM:  12    -0.117961795942E+04    0.45847E-01   -0.18173E-01  1586   0.474E-01    0.103E+00
RMM:  13    -0.117960362055E+04    0.14339E-01   -0.64168E-02  1668   0.276E-01    0.435E-01
RMM:  14    -0.117960144195E+04    0.21786E-02   -0.14482E-02  1698   0.130E-01    0.303E-01
RMM:  15    -0.117960144729E+04   -0.53314E-05   -0.34688E-03  1655   0.659E-02    0.150E-01
RMM:  16    -0.117960157295E+04   -0.12566E-03   -0.69673E-04  1414   0.301E-02    0.101E-01
RMM:  17    -0.117960172361E+04   -0.15066E-03   -0.32295E-04  1234   0.230E-02    0.477E-02
RMM:  18    -0.117960176917E+04   -0.45563E-04   -0.14968E-04  1068   0.162E-02
   1 F= -.11867372E+04 E0= -.11867239E+04  d E =-.118674E+04  mag=    -0.2695
       N       E                     dE             d eps       ncg     rms          rms(c)
DAV:   1    -0.117958124395E+04    0.20480E-01   -0.76875E+00  1584   0.351E+00    0.141E+00
RMM:   2    -0.117959387396E+04   -0.12630E-01   -0.19762E-01  1635   0.495E-01    0.140E+00
RMM:   3    -0.117959023228E+04    0.36417E-02   -0.84706E-03  1821   0.960E-02    0.134E+00
RMM:   4    -0.117958618385E+04    0.40484E-02   -0.21068E-02  1604   0.138E-01    0.542E-01
RMM:   5    -0.117958711628E+04   -0.93243E-03   -0.35287E-03  1589   0.578E-02    0.193E-01
RMM:   6    -0.117958602045E+04    0.10958E-02   -0.21550E-03  1560   0.428E-02    0.863E-02
RMM:   7    -0.117958593469E+04    0.85759E-04   -0.29926E-04  1181   0.176E-02
   2 F= -.11867238E+04 E0= -.11867107E+04  d E =0.134086E-01  mag=    -0.3084
       N       E                     dE             d eps       ncg     rms          rms(c)
DAV:   1    -0.117960661405E+04   -0.20594E-01   -0.29797E+00  1620   0.221E+00    0.874E-01
RMM:   2    -0.117961072295E+04   -0.41089E-02   -0.69857E-02  1622   0.298E-01    0.875E-01
RMM:   3    -0.117960929841E+04    0.14245E-02   -0.27941E-03  1626   0.555E-02    0.845E-01
RMM:   4    -0.117960746995E+04    0.18285E-02   -0.68540E-03  1585   0.781E-02    0.384E-01
RMM:   5    -0.117960797831E+04   -0.50837E-03   -0.19299E-03  1465   0.419E-02    0.126E-01
RMM:   6    -0.117960755670E+04    0.42162E-03   -0.77738E-04  1377   0.266E-02    0.558E-02
RMM:   7    -0.117960751380E+04    0.42900E-04   -0.14111E-04  1056   0.130E-02
   3 F= -.11867439E+04 E0= -.11867311E+04  d E =-.665399E-02  mag=    -0.3476
       N       E                     dE             d eps       ncg     rms          rms(c)
DAV:   1    -0.117960685609E+04    0.70060E-03   -0.19031E+00  1656   0.196E+00    0.628E-01
RMM:   2    -0.117960952303E+04   -0.26669E-02   -0.36149E-02  1641   0.242E-01    0.592E-01
RMM:   3    -0.117960867125E+04    0.85179E-03   -0.19082E-03  1597   0.514E-02    0.515E-01
RMM:   4    -0.117960872826E+04   -0.57018E-04   -0.80066E-03  1589   0.822E-02    0.174E-01
RMM:   5    -0.117960828342E+04    0.44485E-03   -0.33528E-04  1181   0.191E-02    0.924E-02
RMM:   6    -0.117960818202E+04    0.10140E-03   -0.60616E-04  1234   0.195E-02    0.394E-02
RMM:   7    -0.117960818085E+04    0.11673E-05   -0.45930E-05  1009   0.849E-03
   4 F= -.11867460E+04 E0= -.11867334E+04  d E =-.216312E-02  mag=    -0.3637
       N       E                     dE             d eps       ncg     rms          rms(c)
DAV:   1    -0.117961059504E+04   -0.24130E-02   -0.33366E-01  1728   0.825E-01    0.256E-01
RMM:   2    -0.117961105637E+04   -0.46133E-03   -0.63418E-03  1616   0.985E-02    0.245E-01
RMM:   3    -0.117961092640E+04    0.12997E-03   -0.27456E-04  1165   0.204E-02    0.218E-01
RMM:   4    -0.117961094486E+04   -0.18461E-04   -0.13802E-03  1435   0.358E-02    0.657E-02
RMM:   5    -0.117961086995E+04    0.74907E-04   -0.55253E-05  1021   0.932E-03
   5 F= -.11867481E+04 E0= -.11867355E+04  d E =-.422970E-02  mag=    -0.3740
       N       E                     dE             d eps       ncg     rms          rms(c)
DAV:   1    -0.117961241282E+04   -0.14680E-02   -0.91007E-01  1728   0.135E+00    0.300E-01
RMM:   2    -0.117961369517E+04   -0.12823E-02   -0.19320E-02  1584   0.186E-01    0.281E-01
RMM:   3    -0.117961322588E+04    0.46928E-03   -0.82672E-04  1333   0.359E-02    0.253E-01
RMM:   4    -0.117961260263E+04    0.62325E-03   -0.42258E-03  1584   0.698E-02    0.935E-02
RMM:   5    -0.117961258560E+04    0.17025E-04   -0.16685E-04  1089   0.167E-02
   6 F= -.11867504E+04 E0= -.11867378E+04  d E =-.227110E-02  mag=    -0.3779
       N       E                     dE             d eps       ncg     rms          rms(c)
DAV:   1    -0.117961287054E+04   -0.26791E-03   -0.44159E-02  1728   0.297E-01    0.637E-02
RMM:   2    -0.117961288105E+04   -0.10511E-04   -0.74552E-04  1275   0.354E-02
   7 F= -.11867505E+04 E0= -.11867380E+04  d E =-.244357E-02  mag=    -0.3786
       N       E                     dE             d eps       ncg     rms          rms(c)
DAV:   1    -0.117961372960E+04   -0.85906E-03   -0.62101E-01  1656   0.115E+00    0.201E-01
RMM:   2    -0.117961461954E+04   -0.88994E-03   -0.11041E-02  1586   0.146E-01    0.180E-01
RMM:   3    -0.117961450118E+04    0.11836E-03   -0.43681E-04  1217   0.273E-02    0.159E-01
RMM:   4    -0.117961454449E+04   -0.43315E-04   -0.13058E-03  1531   0.387E-02    0.523E-02
RMM:   5    -0.117961450166E+04    0.42828E-04   -0.52012E-05  1037   0.988E-03
   8 F= -.11867523E+04 E0= -.11867398E+04  d E =-.176751E-02  mag=    -0.3774
       N       E                     dE             d eps       ncg     rms          rms(c)
DAV:   1    -0.117961448922E+04    0.55272E-04   -0.26680E-03  1872   0.757E-02    0.266E-02
RMM:   2    -0.117961449156E+04   -0.23366E-05   -0.83691E-05   996   0.145E-02
   9 F= -.11867523E+04 E0= -.11867398E+04  d E =-.176683E-02  mag=    -0.3769
       N       E                     dE             d eps       ncg     rms          rms(c)
DAV:   1    -0.117961531639E+04   -0.82717E-03   -0.32058E-01  1728   0.854E-01    0.166E-01
RMM:   2    -0.117961575142E+04   -0.43504E-03   -0.61885E-03  1588   0.113E-01    0.155E-01
RMM:   3    -0.117961567360E+04    0.77826E-04   -0.24752E-04  1153   0.219E-02
  10 F= -.11867534E+04 E0= -.11867409E+04  d E =-.112893E-02  mag=    -0.3735
       N       E                     dE             d eps       ncg     rms          rms(c)
DAV:   1    -0.117961564901E+04    0.10242E-03   -0.77794E-03  1728   0.138E-01    0.600E-02
RMM:   2    -0.117961562459E+04    0.24420E-04   -0.15051E-04  1060   0.193E-02
  11 F= -.11867534E+04 E0= -.11867408E+04  d E =-.107131E-02  mag=    -0.3709
       N       E                     dE             d eps       ncg     rms          rms(c)
DAV:   1    -0.117961459425E+04    0.10548E-02   -0.29123E-01  1728   0.897E-01    0.139E-01
RMM:   2    -0.117961518494E+04   -0.59070E-03   -0.74897E-03  1594   0.132E-01    0.134E-01
RMM:   3    -0.117961510163E+04    0.83317E-04   -0.31980E-04  1208   0.249E-02
  12 F= -.11867528E+04 E0= -.11867402E+04  d E =0.569111E-03  mag=    -0.3678
       N       E                     dE             d eps       ncg     rms          rms(c)
DAV:   1    -0.117961618569E+04   -0.10007E-02   -0.10367E-01  1728   0.535E-01    0.678E-02
RMM:   2    -0.117961646361E+04   -0.27792E-03   -0.36049E-03  1592   0.912E-02    0.663E-02
RMM:   3    -0.117961642244E+04    0.41168E-04   -0.11668E-04  1022   0.162E-02
  13 F= -.11867541E+04 E0= -.11867416E+04  d E =-.776459E-03  mag=    -0.3676
