       N       E                     dE             d eps       ncg     rms          rms(c)
DAV:   1     0.482808403643E+04    0.48281E+04   -0.17975E+05  1856   0.955E+02
DAV:   2    -0.511086155218E+02   -0.48792E+04   -0.44787E+04  2400   0.216E+02
DAV:   3    -0.120154275194E+04   -0.11504E+04   -0.11428E+04  1984   0.113E+02
DAV:   4    -0.125093015745E+04   -0.49387E+02   -0.49046E+02  1920   0.308E+01
DAV:   5    -0.125218269435E+04   -0.12525E+01   -0.12483E+01  2272   0.458E+00    0.819E+01
RMM:   6    -0.124811106744E+04    0.40716E+01   -0.11435E+02  1743   0.120E+01    0.806E+01
RMM:   7    -0.121998096233E+04    0.28130E+02   -0.12956E+01  1598   0.462E+00    0.518E+01
RMM:   8    -0.120629717009E+04    0.13684E+02   -0.11052E+01  1574   0.425E+00    0.414E+01
RMM:   9    -0.119177618934E+04    0.14521E+02   -0.12836E+01  1654   0.486E+00    0.319E+01
RMM:  10    -0.117652472737E+04    0.15251E+02   -0.29045E+01  1760   0.681E+00    0.203E+01
RMM:  11    -0.117562790827E+04    0.89682E+00   -0.93272E+00  1566   0.429E+00    0.172E+01
RMM:  12    -0.117605806787E+04   -0.43016E+00   -0.27888E+00  1612   0.245E+00    0.113E+01
RMM:  13    -0.117618552093E+04   -0.12745E+00   -0.87838E-01  1774   0.134E+00    0.841E+00
RMM:  14    -0.117563522740E+04    0.55029E+00   -0.13982E+00  1676   0.146E+00    0.124E+01
RMM:  15    -0.117557067584E+04    0.64552E-01   -0.20725E-01  1689   0.748E-01    0.444E+00
RMM:  16    -0.117549996538E+04    0.70710E-01   -0.39908E-01  1557   0.808E-01    0.330E+00
RMM:  17    -0.117552003515E+04   -0.20070E-01   -0.55894E-02  1613   0.405E-01    0.264E+00
RMM:  18    -0.117551181535E+04    0.82198E-02   -0.14739E-02  1686   0.188E-01    0.167E+00
RMM:  19    -0.117551715072E+04   -0.53354E-02   -0.60937E-03  1708   0.117E-01    0.892E-01
RMM:  20    -0.117552345214E+04   -0.63014E-02   -0.18106E-03  1711   0.763E-02    0.240E+00
RMM:  21    -0.117551692468E+04    0.65275E-02   -0.15175E-03  1654   0.957E-02    0.157E+00
RMM:  22    -0.117552047037E+04   -0.35457E-02   -0.17564E-03  1721   0.495E-02    0.883E-01
RMM:  23    -0.117552351930E+04   -0.30489E-02   -0.83081E-04  1711   0.414E-02    0.865E-01
RMM:  24    -0.117552608137E+04   -0.25621E-02   -0.21886E-03  1901   0.575E-02    0.852E-01
RMM:  25    -0.117552781140E+04   -0.17300E-02   -0.52057E-03  2134   0.773E-02    0.129E+00
RMM:  26    -0.117552542945E+04    0.23819E-02   -0.52297E-04  1689   0.499E-02    0.731E-01
RMM:  27    -0.117552562207E+04   -0.19261E-03   -0.21777E-04  1735   0.199E-02    0.183E-01
RMM:  28    -0.117552625972E+04   -0.63765E-03   -0.64360E-05  1602   0.194E-02    0.124E-01
RMM:  29    -0.117552640954E+04   -0.14983E-03   -0.41102E-05  1637   0.119E-02    0.178E-02
RMM:  30    -0.117552645697E+04   -0.47425E-04   -0.10200E-05  1404   0.717E-03    0.684E-02
RMM:  31    -0.117552644930E+04    0.76694E-05   -0.60386E-06  1308   0.331E-03    0.102E-02
RMM:  32    -0.117552645420E+04   -0.48980E-05   -0.14780E-06  1078   0.203E-03    0.895E-03
RMM:  33    -0.117552645567E+04   -0.14699E-05   -0.57651E-07  1024   0.137E-03    0.200E-02
RMM:  34    -0.117552645469E+04    0.98218E-06   -0.21643E-07   985   0.100E-03
   1 F= -.11825871E+04 E0= -.11825746E+04  d E =-.118259E+04  mag=     4.3827
       N       E                     dE             d eps       ncg     rms          rms(c)
DAV:   1    -0.117552351656E+04    0.29391E-02   -0.30676E-01  1792   0.111E+00    0.246E-01
RMM:   2    -0.117552519754E+04   -0.16810E-02   -0.15975E-02  1739   0.175E-01    0.572E-01
RMM:   3    -0.117552494236E+04    0.25518E-03   -0.27900E-03  1926   0.776E-02    0.165E-01
RMM:   4    -0.117552512396E+04   -0.18160E-03   -0.61109E-04  1988   0.333E-02    0.152E-01
RMM:   5    -0.117552496296E+04    0.16100E-03   -0.30125E-04  1596   0.227E-02    0.913E-02
RMM:   6    -0.117552492510E+04    0.37863E-04   -0.26077E-04  1581   0.205E-02    0.553E-02
RMM:   7    -0.117552493253E+04   -0.74317E-05   -0.10725E-04  1597   0.142E-02    0.363E-02
RMM:   8    -0.117552493764E+04   -0.51116E-05   -0.27619E-05  1800   0.767E-03    0.199E-02
RMM:   9    -0.117552493091E+04    0.67319E-05   -0.10623E-05  1558   0.450E-03    0.933E-03
RMM:  10    -0.117552493044E+04    0.47604E-06   -0.11700E-05  1538   0.421E-03    0.836E-03
RMM:  11    -0.117552493035E+04    0.87799E-07   -0.14407E-06  1053   0.183E-03
   2 F= -.11825862E+04 E0= -.11825738E+04  d E =0.825244E-03  mag=     4.3830
       N       E                     dE             d eps       ncg     rms          rms(c)
DAV:   1    -0.117552614144E+04   -0.12110E-02   -0.12392E-01  1760   0.703E-01    0.152E-01
RMM:   2    -0.117552674267E+04   -0.60123E-03   -0.58040E-03  1726   0.107E-01    0.368E-01
RMM:   3    -0.117552658539E+04    0.15728E-03   -0.89513E-04  1789   0.463E-02    0.104E-01
RMM:   4    -0.117552668246E+04   -0.97071E-04   -0.22986E-04  1913   0.206E-02    0.945E-02
RMM:   5    -0.117552662596E+04    0.56506E-04   -0.11908E-04  1611   0.143E-02    0.564E-02
RMM:   6    -0.117552661378E+04    0.12182E-04   -0.99181E-05  1576   0.128E-02    0.347E-02
RMM:   7    -0.117552661517E+04   -0.13925E-05   -0.43451E-05  1577   0.899E-03    0.214E-02
RMM:   8    -0.117552661676E+04   -0.15913E-05   -0.11024E-05  1698   0.486E-03    0.118E-02
RMM:   9    -0.117552661458E+04    0.21801E-05   -0.34051E-06  1252   0.263E-03    0.708E-03
RMM:  10    -0.117552661403E+04    0.55328E-06   -0.43372E-06  1265   0.256E-03
   3 F= -.11825875E+04 E0= -.11825750E+04  d E =-.414486E-03  mag=     4.3827
       N       E                     dE             d eps       ncg     rms          rms(c)
DAV:   1    -0.117552600911E+04    0.60547E-03   -0.17190E-01  2016   0.833E-01    0.149E-01
RMM:   2    -0.117552668687E+04   -0.67776E-03   -0.68230E-03  1770   0.116E-01    0.284E-01
RMM:   3    -0.117552663866E+04    0.48215E-04   -0.99849E-04  1789   0.478E-02    0.106E-01
RMM:   4    -0.117552671096E+04   -0.72302E-04   -0.27542E-04  1862   0.219E-02    0.908E-02
RMM:   5    -0.117552666365E+04    0.47306E-04   -0.13729E-04  1595   0.156E-02    0.516E-02
RMM:   6    -0.117552666200E+04    0.16548E-05   -0.75976E-05  1565   0.114E-02    0.395E-02
RMM:   7    -0.117552666799E+04   -0.59942E-05   -0.31090E-05  1625   0.787E-03    0.180E-02
RMM:   8    -0.117552667202E+04   -0.40307E-05   -0.10851E-05  1649   0.466E-03    0.112E-02
RMM:   9    -0.117552666931E+04    0.27083E-05   -0.47224E-06  1434   0.296E-03    0.147E-02
RMM:  10    -0.117552666873E+04    0.58272E-06   -0.22272E-06  1111   0.217E-03
   4 F= -.11825878E+04 E0= -.11825754E+04  d E =-.383266E-03  mag=     4.3833
