       N       E                     dE             d eps       ncg     rms          rms(c)
DAV:   1     0.484032709165E+04    0.48403E+04   -0.16881E+05  1836   0.901E+02
DAV:   2    -0.694003922496E+02   -0.49097E+04   -0.44556E+04  2520   0.206E+02
DAV:   3    -0.118412604860E+04   -0.11147E+04   -0.11104E+04  2160   0.109E+02
DAV:   4    -0.122822490343E+04   -0.44099E+02   -0.43900E+02  2088   0.283E+01
DAV:   5    -0.122937006177E+04   -0.11452E+01   -0.11431E+01  2340   0.422E+00    0.633E+01
RMM:   6    -0.121192361533E+04    0.17446E+02   -0.13660E+01  1584   0.375E+00    0.499E+01
RMM:   7    -0.118244199004E+04    0.29482E+02   -0.34518E+01  1584   0.664E+00    0.343E+01
RMM:   8    -0.116740356357E+04    0.15038E+02   -0.18935E+01  1584   0.496E+00    0.271E+01
RMM:   9    -0.116178039880E+04    0.56232E+01   -0.14734E+01  1584   0.439E+00    0.150E+01
RMM:  10    -0.116202127741E+04   -0.24088E+00   -0.72411E+00  1584   0.308E+00    0.908E+00
RMM:  11    -0.116229733806E+04   -0.27606E+00   -0.79069E-01  1613   0.107E+00    0.606E+00
RMM:  12    -0.116173870887E+04    0.55863E+00   -0.15486E+00  1584   0.136E+00    0.199E+00
RMM:  13    -0.116169630365E+04    0.42405E-01   -0.17492E-01  1584   0.467E-01    0.719E-01
RMM:  14    -0.116169554772E+04    0.75593E-03   -0.28060E-02  1595   0.192E-01    0.398E-01
RMM:  15    -0.116169580248E+04   -0.25476E-03   -0.40552E-03  1606   0.728E-02    0.185E-01
RMM:  16    -0.116169589124E+04   -0.88760E-04   -0.19302E-03  1573   0.474E-02    0.123E-01
RMM:  17    -0.116169611756E+04   -0.22632E-03   -0.27104E-04  1157   0.222E-02    0.810E-02
RMM:  18    -0.116169620161E+04   -0.84042E-04   -0.20373E-04  1094   0.193E-02
   1 F= -.11689768E+04 E0= -.11689768E+04  d E =-.116898E+04  mag=     0.9988
       N       E                     dE             d eps       ncg     rms          rms(c)
DAV:   1    -0.116169330645E+04    0.28111E-02   -0.13794E+00  1728   0.174E+00    0.463E-01
RMM:   2    -0.116169567406E+04   -0.23676E-02   -0.32900E-02  1584   0.236E-01    0.422E-01
RMM:   3    -0.116169509161E+04    0.58246E-03   -0.22658E-03  1682   0.541E-02    0.377E-01
RMM:   4    -0.116169380525E+04    0.12864E-02   -0.62625E-03  1584   0.868E-02    0.140E-01
RMM:   5    -0.116169380114E+04    0.41084E-05   -0.33017E-04  1216   0.236E-02
   2 F= -.11689750E+04 E0= -.11689750E+04  d E =0.181288E-02  mag=     0.9998
       N       E                     dE             d eps       ncg     rms          rms(c)
DAV:   1    -0.116169864348E+04   -0.48382E-02   -0.43464E-01  1728   0.972E-01    0.247E-01
RMM:   2    -0.116169907997E+04   -0.43649E-03   -0.79912E-03  1584   0.123E-01    0.225E-01
RMM:   3    -0.116169878239E+04    0.29758E-03   -0.55603E-04  1307   0.284E-02    0.195E-01
RMM:   4    -0.116169833553E+04    0.44686E-03   -0.22896E-03  1584   0.527E-02    0.746E-02
RMM:   5    -0.116169832153E+04    0.13993E-04   -0.82926E-05  1030   0.129E-02
   3 F= -.11689792E+04 E0= -.11689792E+04  d E =-.237927E-02  mag=     0.9999
       N       E                     dE             d eps       ncg     rms          rms(c)
DAV:   1    -0.116170015995E+04   -0.18244E-02   -0.55662E-01  1764   0.116E+00    0.281E-01
RMM:   2    -0.116170046049E+04   -0.30054E-03   -0.10226E-02  1584   0.147E-01    0.244E-01
RMM:   3    -0.116169971667E+04    0.74382E-03   -0.82998E-04  1569   0.359E-02    0.199E-01
RMM:   4    -0.116169892608E+04    0.79059E-03   -0.35169E-03  1584   0.631E-02    0.835E-02
RMM:   5    -0.116169888704E+04    0.39034E-04   -0.12237E-04  1064   0.149E-02
   4 F= -.11689794E+04 E0= -.11689794E+04  d E =-.206608E-03  mag=     1.0000
       N       E                     dE             d eps       ncg     rms          rms(c)
DAV:   1    -0.116169997396E+04   -0.10479E-02   -0.12862E-01  1728   0.560E-01    0.128E-01
RMM:   2    -0.116169998814E+04   -0.14183E-04   -0.21317E-03  1584   0.677E-02    0.113E-01
RMM:   3    -0.116169978378E+04    0.20436E-03   -0.16996E-04  1061   0.176E-02    0.911E-02
RMM:   4    -0.116169958656E+04    0.19721E-03   -0.94241E-04  1580   0.333E-02    0.387E-02
RMM:   5    -0.116169957876E+04    0.78050E-05   -0.23581E-05   996   0.712E-03
   5 F= -.11689802E+04 E0= -.11689802E+04  d E =-.107069E-02  mag=     1.0000
       N       E                     dE             d eps       ncg     rms          rms(c)
DAV:   1    -0.116169997451E+04   -0.38794E-03   -0.21942E-01  1728   0.746E-01    0.111E-01
RMM:   2    -0.116170023963E+04   -0.26512E-03   -0.43464E-03  1584   0.100E-01    0.105E-01
RMM:   3    -0.116170014769E+04    0.91942E-04   -0.20015E-04  1137   0.204E-02
   6 F= -.11689809E+04 E0= -.11689809E+04  d E =-.632679E-03  mag=     1.0000
       N       E                     dE             d eps       ncg     rms          rms(c)
DAV:   1    -0.116170005183E+04    0.18780E-03   -0.82844E-03  1728   0.143E-01    0.339E-02
RMM:   2    -0.116170008036E+04   -0.28533E-04   -0.46843E-04  1366   0.337E-02
   7 F= -.11689808E+04 E0= -.11689808E+04  d E =-.555553E-03  mag=     1.0000
