       N       E                     dE             d eps       ncg     rms          rms(c)
DAV:   1     0.495419650046E+04    0.49542E+04   -0.17665E+05  1824   0.950E+02
DAV:   2    -0.243663061901E+02   -0.49786E+04   -0.45626E+04  2432   0.216E+02
DAV:   3    -0.119856800260E+04   -0.11742E+04   -0.11675E+04  2016   0.114E+02
DAV:   4    -0.124855047729E+04   -0.49982E+02   -0.49653E+02  1920   0.311E+01
DAV:   5    -0.124982860097E+04   -0.12781E+01   -0.12749E+01  2304   0.466E+00    0.773E+01
RMM:   6    -0.123414845029E+04    0.15680E+02   -0.56112E+01  1668   0.828E+00    0.677E+01
RMM:   7    -0.121934516745E+04    0.14803E+02   -0.83861E+00  1556   0.392E+00    0.468E+01
RMM:   8    -0.120125094672E+04    0.18094E+02   -0.16395E+01  1578   0.518E+00    0.349E+01
RMM:   9    -0.118062480141E+04    0.20626E+02   -0.36698E+01  1625   0.769E+00    0.227E+01
RMM:  10    -0.117688552714E+04    0.37393E+01   -0.19880E+01  1537   0.598E+00    0.135E+01
RMM:  11    -0.117787885198E+04   -0.99332E+00   -0.39734E+00  1573   0.300E+00    0.779E+00
RMM:  12    -0.117784382145E+04    0.35031E-01   -0.50810E-01  1745   0.113E+00    0.491E+00
RMM:  13    -0.117743572162E+04    0.40810E+00   -0.50687E-01  1536   0.951E-01    0.299E+00
RMM:  14    -0.117741056533E+04    0.25156E-01   -0.39118E-01  1542   0.787E-01    0.144E+00
RMM:  15    -0.117738768062E+04    0.22885E-01   -0.37934E-02  1539   0.319E-01    0.488E-01
RMM:  16    -0.117738882386E+04   -0.11432E-02   -0.37641E-02  1540   0.257E-01    0.340E-01
RMM:  17    -0.117738749395E+04    0.13299E-02   -0.83939E-03  1545   0.137E-01    0.151E-01
RMM:  18    -0.117738772307E+04   -0.22912E-03   -0.38611E-03  1582   0.840E-02    0.104E-01
RMM:  19    -0.117738772568E+04   -0.26100E-05   -0.41472E-04  1622   0.348E-02    0.699E-02
RMM:  20    -0.117738781062E+04   -0.84943E-04   -0.15920E-04  1617   0.189E-02    0.525E-02
RMM:  21    -0.117738784947E+04   -0.38847E-04   -0.97870E-05  1545   0.146E-02    0.355E-02
RMM:  22    -0.117738785749E+04   -0.80212E-05   -0.65963E-05  1589   0.110E-02    0.250E-02
RMM:  23    -0.117738786102E+04   -0.35289E-05   -0.11958E-05  1558   0.574E-03    0.162E-02
RMM:  24    -0.117738785844E+04    0.25761E-05   -0.14967E-05  1511   0.500E-03    0.118E-02
RMM:  25    -0.117738785809E+04    0.35788E-06   -0.38892E-06  1215   0.293E-03
   1 F= -.11844687E+04 E0= -.11844687E+04  d E =-.118447E+04  mag=     3.0002
       N       E                     dE             d eps       ncg     rms          rms(c)
DAV:   1    -0.117738681068E+04    0.10478E-02   -0.24110E-01  1600   0.814E-01    0.144E-01
RMM:   2    -0.117738732087E+04   -0.51019E-03   -0.68267E-03  1671   0.129E-01    0.134E-01
RMM:   3    -0.117738739909E+04   -0.78223E-04   -0.14731E-03  1789   0.550E-02    0.113E-01
RMM:   4    -0.117738731795E+04    0.81142E-04   -0.28142E-04  1822   0.241E-02    0.948E-02
RMM:   5    -0.117738723848E+04    0.79472E-04   -0.20139E-04  1547   0.183E-02    0.606E-02
RMM:   6    -0.117738723526E+04    0.32217E-05   -0.15209E-04  1553   0.157E-02    0.415E-02
RMM:   7    -0.117738723696E+04   -0.17005E-05   -0.30024E-05  1610   0.828E-03    0.267E-02
RMM:   8    -0.117738724433E+04   -0.73714E-05   -0.19282E-05  1563   0.597E-03    0.167E-02
RMM:   9    -0.117738724125E+04    0.30749E-05   -0.66359E-06  1472   0.353E-03    0.127E-02
RMM:  10    -0.117738724149E+04   -0.23506E-06   -0.61641E-06  1433   0.303E-03
   2 F= -.11844688E+04 E0= -.11844688E+04  d E =-.862556E-04  mag=     3.0000
       N       E                     dE             d eps       ncg     rms          rms(c)
DAV:   1    -0.117738784620E+04   -0.60495E-03   -0.53969E-02  1664   0.383E-01    0.662E-02
RMM:   2    -0.117738793676E+04   -0.90560E-04   -0.13954E-03  1637   0.600E-02    0.608E-02
RMM:   3    -0.117738794808E+04   -0.11316E-04   -0.29585E-04  1750   0.251E-02    0.511E-02
RMM:   4    -0.117738792979E+04    0.18283E-04   -0.60183E-05  1804   0.111E-02    0.424E-02
RMM:   5    -0.117738791145E+04    0.18349E-04   -0.46244E-05  1539   0.873E-03    0.261E-02
RMM:   6    -0.117738791109E+04    0.35761E-06   -0.32449E-05  1543   0.730E-03    0.177E-02
RMM:   7    -0.117738791185E+04   -0.75727E-06   -0.67913E-06  1554   0.385E-03
   3 F= -.11844692E+04 E0= -.11844692E+04  d E =-.425155E-03  mag=     3.0000
       N       E                     dE             d eps       ncg     rms          rms(c)
DAV:   1    -0.117738747477E+04    0.43632E-03   -0.14015E-01  1920   0.667E-01    0.110E-01
RMM:   2    -0.117738786990E+04   -0.39514E-03   -0.47584E-03  1701   0.979E-02    0.955E-02
RMM:   3    -0.117738797118E+04   -0.10128E-03   -0.11556E-03  1735   0.401E-02    0.737E-02
RMM:   4    -0.117738796727E+04    0.39053E-05   -0.16566E-04  1779   0.161E-02    0.628E-02
RMM:   5    -0.117738794565E+04    0.21630E-04   -0.62697E-05  1556   0.105E-02    0.397E-02
RMM:   6    -0.117738794400E+04    0.16453E-05   -0.76106E-05  1540   0.110E-02    0.220E-02
RMM:   7    -0.117738795305E+04   -0.90540E-05   -0.13332E-05  1598   0.556E-03    0.146E-02
RMM:   8    -0.117738795778E+04   -0.47253E-05   -0.50522E-06  1259   0.307E-03    0.108E-02
RMM:   9    -0.117738795782E+04   -0.42623E-07   -0.17944E-06  1041   0.185E-03
   4 F= -.11844696E+04 E0= -.11844696E+04  d E =-.388340E-03  mag=     3.0000
       N       E                     dE             d eps       ncg     rms          rms(c)
DAV:   1    -0.117738797237E+04   -0.14593E-04   -0.24778E-04  1792   0.286E-02    0.502E-03
RMM:   2    -0.117738797315E+04   -0.77715E-06   -0.83509E-06  1253   0.410E-03
   5 F= -.11844696E+04 E0= -.11844696E+04  d E =-.388947E-03  mag=     3.0000
       N       E                     dE             d eps       ncg     rms          rms(c)
DAV:   1    -0.117738625471E+04    0.17177E-02   -0.14106E-01  1888   0.855E-01    0.180E-01
RMM:   2    -0.117738742329E+04   -0.11686E-02   -0.12192E-02  1713   0.126E-01    0.118E-01
RMM:   3    -0.117738788489E+04   -0.46161E-03   -0.35475E-03  1746   0.512E-02    0.613E-02
RMM:   4    -0.117738791528E+04   -0.30387E-04   -0.30742E-04  1895   0.184E-02    0.516E-02
RMM:   5    -0.117738792087E+04   -0.55894E-05   -0.41056E-05  1637   0.812E-03    0.344E-02
RMM:   6    -0.117738793546E+04   -0.14586E-04   -0.40495E-05  1574   0.811E-03    0.159E-02
RMM:   7    -0.117738794811E+04   -0.12650E-04   -0.89822E-06  1565   0.434E-03    0.965E-03
RMM:   8    -0.117738795602E+04   -0.79083E-05   -0.23965E-06  1074   0.237E-03    0.654E-03
RMM:   9    -0.117738795641E+04   -0.39287E-06   -0.95169E-07  1028   0.141E-03
   6 F= -.11844698E+04 E0= -.11844698E+04  d E =-.272907E-03  mag=     3.0000
