       N       E                     dE             d eps       ncg     rms          rms(c)
DAV:   1     0.492891256383E+04    0.49289E+04   -0.17378E+05  1872   0.915E+02
DAV:   2    -0.461873334519E+02   -0.49751E+04   -0.45383E+04  2520   0.207E+02
DAV:   3    -0.119953858368E+04   -0.11534E+04   -0.11490E+04  2124   0.110E+02
DAV:   4    -0.124585074272E+04   -0.46312E+02   -0.46062E+02  1980   0.291E+01
DAV:   5    -0.124704054845E+04   -0.11898E+01   -0.11874E+01  2340   0.436E+00    0.843E+01
RMM:   6    -0.123371004663E+04    0.13331E+02   -0.77801E+00  1584   0.319E+00    0.746E+01
RMM:   7    -0.118518621773E+04    0.48524E+02   -0.96849E+01  1584   0.111E+01    0.523E+01
RMM:   8    -0.118159140437E+04    0.35948E+01   -0.24626E+01  1584   0.571E+00    0.293E+01
RMM:   9    -0.118567264651E+04   -0.40812E+01   -0.25541E+01  1584   0.568E+00    0.118E+01
RMM:  10    -0.118158413688E+04    0.40885E+01   -0.67227E+00  1584   0.290E+00    0.629E+00
RMM:  11    -0.118147364437E+04    0.11049E+00   -0.70982E-01  1585   0.948E-01    0.328E+00
RMM:  12    -0.118135953348E+04    0.11411E+00   -0.32811E-01  1584   0.579E-01    0.135E+00
RMM:  13    -0.118132162221E+04    0.37911E-01   -0.20883E-01  1584   0.510E-01    0.696E-01
RMM:  14    -0.118132161827E+04    0.39445E-05   -0.15826E-02  1584   0.143E-01    0.491E-01
RMM:  15    -0.118132039485E+04    0.12234E-02   -0.77500E-03  1593   0.912E-02    0.562E-01
RMM:  16    -0.118131977751E+04    0.61733E-03   -0.23018E-03  1584   0.521E-02    0.181E-01
RMM:  17    -0.118132036572E+04   -0.58820E-03   -0.98793E-04  1552   0.337E-02    0.126E-01
RMM:  18    -0.118131990923E+04    0.45649E-03   -0.18826E-03  1584   0.475E-02    0.688E-02
RMM:  19    -0.118131993534E+04   -0.26109E-04   -0.45931E-05  1024   0.938E-03
   1 F= -.11887053E+04 E0= -.11887053E+04  d E =-.118871E+04  mag=     0.0015
       N       E                     dE             d eps       ncg     rms          rms(c)
DAV:   1    -0.118131471849E+04    0.51907E-02   -0.87178E-01  1656   0.137E+00    0.119E+00
RMM:   2    -0.118131705528E+04   -0.23368E-02   -0.30454E-02  1584   0.210E-01    0.106E+00
RMM:   3    -0.118131645577E+04    0.59951E-03   -0.17543E-03  1612   0.489E-02    0.832E-01
RMM:   4    -0.118131640774E+04    0.48030E-04   -0.45702E-03  1584   0.695E-02    0.234E-01
RMM:   5    -0.118131618332E+04    0.22442E-03   -0.19583E-04  1089   0.162E-02    0.145E-01
RMM:   6    -0.118131607714E+04    0.10618E-03   -0.47873E-04  1159   0.197E-02    0.468E-02
RMM:   7    -0.118131609056E+04   -0.13423E-04   -0.49092E-05  1020   0.829E-03
   2 F= -.11887026E+04 E0= -.11887026E+04  d E =0.272215E-02  mag=    -0.0001
       N       E                     dE             d eps       ncg     rms          rms(c)
DAV:   1    -0.118132021197E+04   -0.41348E-02   -0.39114E-01  1656   0.915E-01    0.804E-01
RMM:   2    -0.118132105454E+04   -0.84257E-03   -0.12056E-02  1584   0.134E-01    0.709E-01
RMM:   3    -0.118132073567E+04    0.31887E-03   -0.71473E-04  1251   0.314E-02    0.537E-01
RMM:   4    -0.118132073566E+04    0.12165E-07   -0.19388E-03  1564   0.456E-02    0.159E-01
RMM:   5    -0.118132061086E+04    0.12480E-03   -0.13243E-04  1054   0.124E-02    0.880E-02
RMM:   6    -0.118132058559E+04    0.25278E-04   -0.17145E-04  1058   0.120E-02
   3 F= -.11887063E+04 E0= -.11887063E+04  d E =-.101660E-02  mag=     0.0000
