       N       E                     dE             d eps       ncg     rms          rms(c)
DAV:   1     0.511816115562E+04    0.51182E+04   -0.17418E+05  1800   0.929E+02
DAV:   2    -0.916363943290E+01   -0.51273E+04   -0.46978E+04  2592   0.214E+02
DAV:   3    -0.119619685208E+04   -0.11870E+04   -0.11816E+04  2124   0.113E+02
DAV:   4    -0.124315372742E+04   -0.46957E+02   -0.46700E+02  2016   0.298E+01
DAV:   5    -0.124431751322E+04   -0.11638E+01   -0.11599E+01  2196   0.431E+00    0.687E+01
RMM:   6    -0.122812901293E+04    0.16189E+02   -0.32260E+01  1584   0.525E+00    0.555E+01
RMM:   7    -0.121298919256E+04    0.15140E+02   -0.77199E+00  1584   0.328E+00    0.450E+01
RMM:   8    -0.118803434545E+04    0.24955E+02   -0.30555E+01  1584   0.644E+00    0.286E+01
RMM:   9    -0.117744136043E+04    0.10593E+02   -0.19981E+01  1584   0.519E+00    0.200E+01
RMM:  10    -0.117818143651E+04   -0.74008E+00   -0.20292E+01  1584   0.511E+00    0.844E+00
RMM:  11    -0.117741983565E+04    0.76160E+00   -0.65988E-01  1616   0.106E+00    0.588E+00
RMM:  12    -0.117721848011E+04    0.20136E+00   -0.70897E-01  1584   0.851E-01    0.377E+00
RMM:  13    -0.117697091585E+04    0.24756E+00   -0.56431E-01  1584   0.796E-01    0.128E+00
RMM:  14    -0.117696127493E+04    0.96409E-02   -0.53049E-02  1586   0.272E-01    0.800E-01
RMM:  15    -0.117695694059E+04    0.43343E-02   -0.20668E-02  1613   0.132E-01    0.371E-01
RMM:  16    -0.117695632505E+04    0.61554E-03   -0.11919E-02  1588   0.120E-01    0.228E-01
RMM:  17    -0.117695576777E+04    0.55728E-03   -0.22923E-03  1474   0.469E-02    0.124E-01
RMM:  18    -0.117695581678E+04   -0.49002E-04   -0.11212E-03  1314   0.328E-02    0.850E-02
RMM:  19    -0.117695596771E+04   -0.15094E-03   -0.30985E-04  1188   0.221E-02    0.571E-02
RMM:  20    -0.117695592953E+04    0.38179E-04   -0.13782E-04  1012   0.149E-02
   1 F= -.11843143E+04 E0= -.11843143E+04  d E =-.118431E+04  mag=     0.9982
       N       E                     dE             d eps       ncg     rms          rms(c)
DAV:   1    -0.117695216028E+04    0.38074E-02   -0.12883E+00  1800   0.168E+00    0.609E-01
RMM:   2    -0.117695472264E+04   -0.25624E-02   -0.32094E-02  1587   0.236E-01    0.574E-01
RMM:   3    -0.117695428854E+04    0.43410E-03   -0.19870E-03  1587   0.511E-02    0.489E-01
RMM:   4    -0.117695367262E+04    0.61592E-03   -0.52920E-03  1584   0.831E-02    0.118E-01
RMM:   5    -0.117695364049E+04    0.32131E-04   -0.18528E-04  1091   0.189E-02
   2 F= -.11843127E+04 E0= -.11843127E+04  d E =0.159950E-02  mag=     0.9999
       N       E                     dE             d eps       ncg     rms          rms(c)
DAV:   1    -0.117695712557E+04   -0.34529E-02   -0.42194E-01  1764   0.956E-01    0.345E-01
RMM:   2    -0.117695771372E+04   -0.58815E-03   -0.88200E-03  1587   0.127E-01    0.322E-01
RMM:   3    -0.117695743936E+04    0.27436E-03   -0.57221E-04  1245   0.288E-02    0.264E-01
RMM:   4    -0.117695719249E+04    0.24688E-03   -0.23602E-03  1584   0.549E-02    0.661E-02
RMM:   5    -0.117695716172E+04    0.30765E-04   -0.66494E-05  1003   0.117E-02
   3 F= -.11843158E+04 E0= -.11843158E+04  d E =-.152968E-02  mag=     1.0000
