       N       E                     dE             d eps       ncg     rms          rms(c)
DAV:   1     0.493141815416E+04    0.49314E+04   -0.17673E+05  1824   0.952E+02
DAV:   2    -0.303596613329E+02   -0.49618E+04   -0.45434E+04  2496   0.218E+02
DAV:   3    -0.119497086318E+04   -0.11646E+04   -0.11581E+04  1984   0.114E+02
DAV:   4    -0.124596513994E+04   -0.50994E+02   -0.50681E+02  1888   0.332E+01
DAV:   5    -0.124751679590E+04   -0.15517E+01   -0.15460E+01  2176   0.533E+00    0.724E+01
RMM:   6    -0.123270708822E+04    0.14810E+02   -0.10387E+01  1566   0.411E+00    0.547E+01
RMM:   7    -0.120657782373E+04    0.26129E+02   -0.11242E+02  1643   0.115E+01    0.429E+01
RMM:   8    -0.120241016427E+04    0.41677E+01   -0.81209E+00  1566   0.500E+00    0.389E+01
RMM:   9    -0.119248927718E+04    0.99209E+01   -0.53914E+00  1562   0.323E+00    0.278E+01
RMM:  10    -0.118267002126E+04    0.98193E+01   -0.29975E+01  1776   0.671E+00    0.216E+01
RMM:  11    -0.118482321550E+04   -0.21532E+01   -0.64986E+00  1631   0.360E+00    0.205E+01
RMM:  12    -0.118322410869E+04    0.15991E+01   -0.26314E+00  1739   0.240E+00    0.110E+01
RMM:  13    -0.118177663480E+04    0.14475E+01   -0.29904E+00  1707   0.179E+00    0.838E+00
RMM:  14    -0.118162527300E+04    0.15136E+00   -0.24741E-01  1801   0.736E-01    0.673E+00
RMM:  15    -0.118177365354E+04   -0.14838E+00   -0.15556E+00  1697   0.128E+00    0.125E+01
RMM:  16    -0.118139560554E+04    0.37805E+00   -0.17529E-01  1559   0.651E-01    0.654E+00
RMM:  17    -0.118129076978E+04    0.10484E+00   -0.29468E-01  1639   0.629E-01    0.305E+00
RMM:  18    -0.118131928042E+04   -0.28511E-01   -0.61952E-02  1744   0.319E-01    0.216E+00
RMM:  19    -0.118132157783E+04   -0.22974E-02   -0.25924E-02  1601   0.228E-01    0.132E+00
RMM:  20    -0.118130440801E+04    0.17170E-01   -0.22608E-02  1613   0.193E-01    0.851E-01
RMM:  21    -0.118130136507E+04    0.30429E-02   -0.80077E-03  1605   0.102E-01    0.635E-01
RMM:  22    -0.118130187253E+04   -0.50746E-03   -0.37435E-03  1693   0.712E-02    0.581E-01
RMM:  23    -0.118130282935E+04   -0.95682E-03   -0.10187E-03  1689   0.431E-02    0.442E-01
RMM:  24    -0.118130330711E+04   -0.47776E-03   -0.29756E-04  1750   0.245E-02    0.423E-01
RMM:  25    -0.118130312829E+04    0.17882E-03   -0.15176E-04  1606   0.165E-02    0.294E-01
RMM:  26    -0.118130310500E+04    0.23288E-04   -0.78391E-05  1618   0.116E-02    0.274E-01
RMM:  27    -0.118130287558E+04    0.22943E-03   -0.46773E-05  1617   0.865E-03    0.222E-01
RMM:  28    -0.118130254617E+04    0.32941E-03   -0.19456E-04  1735   0.139E-02    0.115E-01
RMM:  29    -0.118130251336E+04    0.32802E-04   -0.37474E-05  1613   0.641E-03    0.895E-02
RMM:  30    -0.118130249328E+04    0.20087E-04   -0.20513E-05  1547   0.579E-03    0.579E-02
RMM:  31    -0.118130248213E+04    0.11151E-04   -0.25985E-05  1527   0.549E-03    0.255E-02
RMM:  32    -0.118130248314E+04   -0.10104E-05   -0.37870E-06  1165   0.253E-03    0.204E-02
RMM:  33    -0.118130248473E+04   -0.15963E-05   -0.79187E-06  1298   0.347E-03    0.935E-03
RMM:  34    -0.118130248491E+04   -0.17315E-06   -0.13535E-06  1052   0.177E-03
   1 F= -.11884530E+04 E0= -.11884530E+04  d E =-.118845E+04  mag=    -0.0000
       N       E                     dE             d eps       ncg     rms          rms(c)
DAV:   1    -0.118130035537E+04    0.21294E-02   -0.37730E-01  1632   0.106E+00    0.161E-01
RMM:   2    -0.118130109402E+04   -0.73865E-03   -0.10144E-02  1556   0.171E-01    0.196E-01
RMM:   3    -0.118130126950E+04   -0.17548E-03   -0.23089E-03  1890   0.737E-02    0.177E-01
RMM:   4    -0.118130121462E+04    0.54885E-04   -0.30336E-04  1850   0.256E-02    0.176E-01
RMM:   5    -0.118130095714E+04    0.25748E-03   -0.66943E-04  1553   0.298E-02    0.128E-01
RMM:   6    -0.118130112155E+04   -0.16441E-03   -0.15894E-03  1554   0.456E-02    0.108E-01
RMM:   7    -0.118130097414E+04    0.14741E-03   -0.17953E-04  1536   0.203E-02    0.916E-02
RMM:   8    -0.118130096168E+04    0.12466E-04   -0.12258E-04  1571   0.136E-02    0.753E-02
RMM:   9    -0.118130097882E+04   -0.17141E-04   -0.15599E-05  1552   0.748E-03    0.674E-02
RMM:  10    -0.118130095595E+04    0.22862E-04   -0.29584E-05  1537   0.653E-03    0.530E-02
RMM:  11    -0.118130094957E+04    0.63809E-05   -0.16161E-05  1590   0.497E-03    0.467E-02
RMM:  12    -0.118130094989E+04   -0.31149E-06   -0.20044E-06  1043   0.276E-03
   2 F= -.11884523E+04 E0= -.11884523E+04  d E =0.680441E-03  mag=     0.0000
       N       E                     dE             d eps       ncg     rms          rms(c)
DAV:   1    -0.118130265472E+04   -0.17051E-02   -0.13102E-01  1760   0.623E-01    0.991E-02
RMM:   2    -0.118130282115E+04   -0.16642E-03   -0.28962E-03  1552   0.969E-02    0.106E-01
RMM:   3    -0.118130284322E+04   -0.22077E-04   -0.54120E-04  1811   0.400E-02    0.933E-02
RMM:   4    -0.118130279007E+04    0.53154E-04   -0.10469E-04  1686   0.161E-02    0.843E-02
RMM:   5    -0.118130272054E+04    0.69531E-04   -0.45863E-04  1551   0.255E-02    0.357E-02
RMM:   6    -0.118130273375E+04   -0.13210E-04   -0.12095E-04  1692   0.153E-02    0.314E-02
RMM:   7    -0.118130271720E+04    0.16543E-04   -0.26412E-05  1528   0.710E-03    0.238E-02
RMM:   8    -0.118130272097E+04   -0.37644E-05   -0.14678E-05  1609   0.536E-03    0.148E-02
RMM:   9    -0.118130272051E+04    0.46262E-06   -0.34401E-06  1193   0.302E-03
   3 F= -.11884536E+04 E0= -.11884536E+04  d E =-.585694E-03  mag=     0.0000
       N       E                     dE             d eps       ncg     rms          rms(c)
DAV:   1    -0.118130227398E+04    0.44698E-03   -0.24389E-01  1792   0.809E-01    0.119E-01
RMM:   2    -0.118130249387E+04   -0.21988E-03   -0.43848E-03  1536   0.117E-01    0.158E-01
RMM:   3    -0.118130251769E+04   -0.23828E-04   -0.92061E-04  1775   0.500E-02    0.132E-01
RMM:   4    -0.118130251466E+04    0.30280E-05   -0.14949E-04  1736   0.192E-02    0.134E-01
RMM:   5    -0.118130256025E+04   -0.45582E-04   -0.18708E-04  1552   0.177E-02    0.938E-02
RMM:   6    -0.118130267826E+04   -0.11801E-03   -0.31244E-04  1558   0.215E-02    0.729E-02
RMM:   7    -0.118130264236E+04    0.35900E-04   -0.54547E-05  1536   0.103E-02    0.632E-02
RMM:   8    -0.118130264553E+04   -0.31669E-05   -0.25394E-05  1652   0.627E-03    0.518E-02
RMM:   9    -0.118130264505E+04    0.47746E-06   -0.24915E-06  1106   0.292E-03
   4 F= -.11884542E+04 E0= -.11884542E+04  d E =-.597091E-03  mag=    -0.0000
       N       E                     dE             d eps       ncg     rms          rms(c)
DAV:   1    -0.118130278469E+04   -0.13916E-03   -0.81627E-03  1632   0.148E-01    0.383E-02
RMM:   2    -0.118130278917E+04   -0.44840E-05   -0.13932E-04  1536   0.208E-02    0.222E-02
RMM:   3    -0.118130278963E+04   -0.45779E-06   -0.27781E-05  1648   0.877E-03    0.222E-02
RMM:   4    -0.118130278860E+04    0.10323E-05   -0.64869E-06  1349   0.419E-03    0.162E-02
RMM:   5    -0.118130278919E+04   -0.59733E-06   -0.66640E-06  1406   0.369E-03
   5 F= -.11884542E+04 E0= -.11884542E+04  d E =-.616443E-03  mag=     0.0000
       N       E                     dE             d eps       ncg     rms          rms(c)
DAV:   1    -0.118130299205E+04   -0.20345E-03   -0.99264E-02  1664   0.493E-01    0.744E-02
RMM:   2    -0.118130306710E+04   -0.75046E-04   -0.16326E-03  1536   0.673E-02    0.805E-02
RMM:   3    -0.118130306931E+04   -0.22141E-05   -0.32503E-04  1774   0.294E-02    0.689E-02
RMM:   4    -0.118130307442E+04   -0.51104E-05   -0.52260E-05  1674   0.115E-02    0.628E-02
RMM:   5    -0.118130311177E+04   -0.37353E-04   -0.11174E-04  1558   0.138E-02    0.255E-02
RMM:   6    -0.118130312864E+04   -0.16870E-04   -0.35690E-05  1575   0.836E-03    0.192E-02
RMM:   7    -0.118130312443E+04    0.42132E-05   -0.63875E-06  1436   0.406E-03    0.138E-02
RMM:   8    -0.118130312480E+04   -0.36966E-06   -0.81925E-06  1419   0.350E-03
   6 F= -.11884548E+04 E0= -.11884548E+04  d E =-.647768E-03  mag=     0.0000
       N       E                     dE             d eps       ncg     rms          rms(c)
DAV:   1    -0.118130303653E+04    0.87896E-04   -0.67682E-02  1664   0.408E-01    0.628E-02
RMM:   2    -0.118130308494E+04   -0.48401E-04   -0.11238E-03  1536   0.557E-02    0.700E-02
RMM:   3    -0.118130308657E+04   -0.16310E-05   -0.22374E-04  1770   0.244E-02    0.601E-02
RMM:   4    -0.118130309319E+04   -0.66221E-05   -0.36123E-05  1648   0.961E-03    0.564E-02
RMM:   5    -0.118130312645E+04   -0.33266E-04   -0.69480E-05  1554   0.110E-02    0.271E-02
RMM:   6    -0.118130314287E+04   -0.16416E-04   -0.29986E-05  1553   0.746E-03    0.209E-02
RMM:   7    -0.118130313940E+04    0.34683E-05   -0.40291E-06  1312   0.348E-03    0.158E-02
RMM:   8    -0.118130313885E+04    0.55070E-06   -0.89740E-06  1421   0.351E-03
   7 F= -.11884551E+04 E0= -.11884551E+04  d E =-.920301E-03  mag=    -0.0000
       N       E                     dE             d eps       ncg     rms          rms(c)
DAV:   1    -0.118130354102E+04   -0.40162E-03   -0.93984E-02  1664   0.474E-01    0.753E-02
RMM:   2    -0.118130360387E+04   -0.62853E-04   -0.16645E-03  1536   0.643E-02    0.662E-02
RMM:   3    -0.118130361015E+04   -0.62818E-05   -0.28382E-04  1698   0.276E-02    0.569E-02
RMM:   4    -0.118130364319E+04   -0.33034E-04   -0.72049E-05  1600   0.136E-02    0.361E-02
RMM:   5    -0.118130368150E+04   -0.38312E-04   -0.82034E-05  1553   0.124E-02    0.116E-02
RMM:   6    -0.118130368009E+04    0.14076E-05   -0.82951E-06  1554   0.553E-03    0.947E-03
RMM:   7    -0.118130367959E+04    0.49794E-06   -0.14033E-05  1480   0.430E-03    0.432E-03
RMM:   8    -0.118130367964E+04   -0.50517E-07   -0.13412E-06  1016   0.205E-03
   8 F= -.11884559E+04 E0= -.11884559E+04  d E =-.765057E-03  mag=     0.0000
       N       E                     dE             d eps       ncg     rms          rms(c)
DAV:   1    -0.118130363958E+04    0.40017E-04   -0.23340E-01  1536   0.748E-01    0.118E-01
RMM:   2    -0.118130379143E+04   -0.15186E-03   -0.41110E-03  1536   0.101E-01    0.106E-01
RMM:   3    -0.118130379911E+04   -0.76793E-05   -0.69777E-04  1699   0.432E-02    0.919E-02
RMM:   4    -0.118130387203E+04   -0.72922E-04   -0.18464E-04  1604   0.215E-02    0.574E-02
RMM:   5    -0.118130397412E+04   -0.10209E-03   -0.20768E-04  1554   0.195E-02    0.182E-02
RMM:   6    -0.118130396860E+04    0.55192E-05   -0.20285E-05  1574   0.879E-03    0.150E-02
RMM:   7    -0.118130396846E+04    0.14175E-06   -0.37649E-05  1528   0.701E-03    0.677E-03
RMM:   8    -0.118130396825E+04    0.21527E-06   -0.34601E-06  1226   0.331E-03
   9 F= -.11884565E+04 E0= -.11884565E+04  d E =-.140901E-02  mag=    -0.0000
       N       E                     dE             d eps       ncg     rms          rms(c)
DAV:   1    -0.118130382999E+04    0.13848E-03   -0.37060E-02  1664   0.298E-01    0.467E-02
RMM:   2    -0.118130385546E+04   -0.25471E-04   -0.64403E-04  1536   0.403E-02    0.423E-02
RMM:   3    -0.118130385873E+04   -0.32762E-05   -0.11168E-04  1701   0.173E-02    0.366E-02
RMM:   4    -0.118130387208E+04   -0.13345E-04   -0.29119E-05  1586   0.854E-03    0.226E-02
RMM:   5    -0.118130388742E+04   -0.15340E-04   -0.30338E-05  1540   0.755E-03    0.721E-03
RMM:   6    -0.118130388631E+04    0.11062E-05   -0.31100E-06  1153   0.344E-03    0.580E-03
RMM:   7    -0.118130388632E+04   -0.98953E-08   -0.53303E-06  1364   0.278E-03
  10 F= -.11884566E+04 E0= -.11884566E+04  d E =-.146932E-02  mag=     0.0000
       N       E                     dE             d eps       ncg     rms          rms(c)
DAV:   1    -0.118130404451E+04   -0.15820E-03   -0.32468E-02  1600   0.269E-01    0.437E-02
RMM:   2    -0.118130405999E+04   -0.15474E-04   -0.49568E-04  1536   0.349E-02    0.398E-02
RMM:   3    -0.118130406040E+04   -0.41410E-06   -0.85552E-05  1704   0.152E-02    0.347E-02
RMM:   4    -0.118130407130E+04   -0.10894E-04   -0.21367E-05  1578   0.734E-03    0.236E-02
RMM:   5    -0.118130408698E+04   -0.15684E-04   -0.27514E-05  1529   0.700E-03    0.741E-03
RMM:   6    -0.118130408662E+04    0.36316E-06   -0.25427E-06  1107   0.307E-03
  11 F= -.11884569E+04 E0= -.11884569E+04  d E =-.335995E-03  mag=    -0.0000
       N       E                     dE             d eps       ncg     rms          rms(c)
DAV:   1    -0.118130408576E+04    0.12154E-05   -0.29280E-01  1536   0.806E-01    0.132E-01
RMM:   2    -0.118130421085E+04   -0.12509E-03   -0.45147E-03  1536   0.105E-01    0.120E-01
RMM:   3    -0.118130420525E+04    0.56035E-05   -0.78051E-04  1706   0.459E-02    0.104E-01
RMM:   4    -0.118130430241E+04   -0.97163E-04   -0.19793E-04  1600   0.222E-02    0.689E-02
RMM:   5    -0.118130445872E+04   -0.15631E-03   -0.23559E-04  1550   0.204E-02    0.221E-02
RMM:   6    -0.118130445572E+04    0.30053E-05   -0.22759E-05  1602   0.895E-03    0.165E-02
RMM:   7    -0.118130445722E+04   -0.14961E-05   -0.22373E-05  1484   0.585E-03    0.847E-03
RMM:   8    -0.118130445775E+04   -0.53932E-06   -0.23714E-06  1094   0.281E-03
  12 F= -.11884577E+04 E0= -.11884577E+04  d E =-.111563E-02  mag=    -0.0000
       N       E                     dE             d eps       ncg     rms          rms(c)
DAV:   1    -0.118130269000E+04    0.17672E-02   -0.11716E+00  1536   0.161E+00    0.263E-01
RMM:   2    -0.118130336517E+04   -0.67517E-03   -0.18141E-02  1536   0.210E-01    0.238E-01
RMM:   3    -0.118130338704E+04   -0.21863E-04   -0.31191E-03  1704   0.915E-02    0.206E-01
RMM:   4    -0.118130361060E+04   -0.22356E-03   -0.79717E-04  1600   0.444E-02    0.137E-01
RMM:   5    -0.118130416840E+04   -0.55780E-03   -0.97953E-04  1552   0.413E-02    0.431E-02
RMM:   6    -0.118130415558E+04    0.12819E-04   -0.93801E-05  1642   0.181E-02    0.334E-02
RMM:   7    -0.118130416117E+04   -0.55924E-05   -0.10639E-04  1536   0.124E-02    0.166E-02
RMM:   8    -0.118130416369E+04   -0.25166E-05   -0.95085E-06  1494   0.578E-03    0.124E-02
RMM:   9    -0.118130416207E+04    0.16167E-05   -0.13361E-05  1462   0.427E-03    0.694E-03
RMM:  10    -0.118130416252E+04   -0.44885E-06   -0.60708E-06  1348   0.305E-03
  13 F= -.11884582E+04 E0= -.11884582E+04  d E =-.164257E-02  mag=    -0.0000
       N       E                     dE             d eps       ncg     rms          rms(c)
DAV:   1    -0.118130435297E+04   -0.19090E-03   -0.14249E-01  1600   0.582E-01    0.960E-02
RMM:   2    -0.118130443046E+04   -0.77490E-04   -0.24838E-03  1544   0.772E-02    0.838E-02
RMM:   3    -0.118130442827E+04    0.21946E-05   -0.38238E-04  1700   0.315E-02    0.719E-02
RMM:   4    -0.118130449265E+04   -0.64382E-04   -0.11446E-04  1588   0.162E-02    0.431E-02
RMM:   5    -0.118130455860E+04   -0.65943E-04   -0.88750E-05  1554   0.132E-02    0.164E-02
RMM:   6    -0.118130455890E+04   -0.30746E-06   -0.11115E-05  1548   0.626E-03    0.107E-02
RMM:   7    -0.118130455970E+04   -0.79254E-06   -0.81349E-06  1372   0.370E-03
  14 F= -.11884590E+04 E0= -.11884590E+04  d E =-.745872E-03  mag=     0.0000
       N       E                     dE             d eps       ncg     rms          rms(c)
DAV:   1    -0.118130304091E+04    0.15180E-02   -0.12844E+00  1600   0.175E+00    0.287E-01
RMM:   2    -0.118130397033E+04   -0.92941E-03   -0.22608E-02  1544   0.233E-01    0.251E-01
RMM:   3    -0.118130400597E+04   -0.35649E-04   -0.34756E-03  1694   0.948E-02    0.216E-01
RMM:   4    -0.118130437939E+04   -0.37341E-03   -0.98525E-04  1594   0.481E-02    0.129E-01
RMM:   5    -0.118130494360E+04   -0.56421E-03   -0.78069E-04  1554   0.396E-02    0.468E-02
RMM:   6    -0.118130494920E+04   -0.55974E-05   -0.10196E-04  1664   0.190E-02    0.316E-02
RMM:   7    -0.118130495672E+04   -0.75258E-05   -0.73822E-05  1520   0.110E-02    0.173E-02
RMM:   8    -0.118130495845E+04   -0.17233E-05   -0.13704E-05  1541   0.557E-03    0.112E-02
RMM:   9    -0.118130495768E+04    0.77134E-06   -0.11429E-05  1435   0.422E-03    0.757E-03
RMM:  10    -0.118130495772E+04   -0.38592E-07   -0.25565E-06  1114   0.245E-03
  15 F= -.11884604E+04 E0= -.11884604E+04  d E =-.219419E-02  mag=     0.0000
       N       E                     dE             d eps       ncg     rms          rms(c)
DAV:   1    -0.118129450699E+04    0.10451E-01   -0.51347E+00  1600   0.351E+00    0.578E-01
RMM:   2    -0.118129944536E+04   -0.49384E-02   -0.92926E-02  1542   0.467E-01    0.501E-01
RMM:   3    -0.118129980682E+04   -0.36146E-03   -0.14309E-02  1688   0.191E-01    0.429E-01
RMM:   4    -0.118130056791E+04   -0.76108E-03   -0.40979E-03  1600   0.971E-02    0.255E-01
RMM:   5    -0.118130228215E+04   -0.17142E-02   -0.30638E-03  1560   0.769E-02    0.943E-02
RMM:   6    -0.118130229015E+04   -0.80023E-05   -0.38253E-04  1656   0.369E-02    0.603E-02
RMM:   7    -0.118130233692E+04   -0.46768E-04   -0.26396E-04  1552   0.211E-02    0.343E-02
RMM:   8    -0.118130234175E+04   -0.48259E-05   -0.58984E-05  1682   0.112E-02    0.213E-02
RMM:   9    -0.118130234172E+04    0.31258E-07   -0.39547E-05  1514   0.760E-03    0.148E-02
RMM:  10    -0.118130234176E+04   -0.45038E-07   -0.93601E-06  1396   0.443E-03
  16 F= -.11884599E+04 E0= -.11884599E+04  d E =-.169399E-02  mag=     0.0000
       N       E                     dE             d eps       ncg     rms          rms(c)
DAV:   1    -0.118130149593E+04    0.84578E-03   -0.21313E+00  1600   0.225E+00    0.369E-01
RMM:   2    -0.118130319095E+04   -0.16950E-02   -0.36937E-02  1544   0.298E-01    0.323E-01
RMM:   3    -0.118130324742E+04   -0.56472E-04   -0.56452E-03  1696   0.121E-01    0.280E-01
RMM:   4    -0.118130365858E+04   -0.41116E-03   -0.16407E-03  1594   0.618E-02    0.168E-01
RMM:   5    -0.118130451962E+04   -0.86104E-03   -0.13076E-03  1560   0.507E-02    0.614E-02
RMM:   6    -0.118130452751E+04   -0.78852E-05   -0.16926E-04  1704   0.240E-02    0.426E-02
RMM:   7    -0.118130454049E+04   -0.12983E-04   -0.12669E-04  1536   0.140E-02    0.228E-02
RMM:   8    -0.118130454658E+04   -0.60878E-05   -0.21992E-05  1610   0.710E-03    0.156E-02
RMM:   9    -0.118130454414E+04    0.24369E-05   -0.24742E-05  1496   0.596E-03    0.995E-03
RMM:  10    -0.118130454431E+04   -0.16960E-06   -0.47245E-06  1202   0.321E-03
  17 F= -.11884608E+04 E0= -.11884608E+04  d E =-.253186E-02  mag=    -0.0000
       N       E                     dE             d eps       ncg     rms          rms(c)
DAV:   1    -0.118130406433E+04    0.47981E-03   -0.58315E-01  1600   0.126E+00    0.210E-01
RMM:   2    -0.118130490456E+04   -0.84023E-03   -0.15257E-02  1538   0.180E-01    0.199E-01
RMM:   3    -0.118130493732E+04   -0.32767E-04   -0.22491E-03  1718   0.703E-02    0.172E-01
RMM:   4    -0.118130502362E+04   -0.86294E-04   -0.34658E-04  1638   0.288E-02    0.141E-01
RMM:   5    -0.118130541659E+04   -0.39297E-03   -0.67718E-04  1572   0.352E-02    0.357E-02
RMM:   6    -0.118130546017E+04   -0.43574E-04   -0.10101E-04  1812   0.160E-02    0.303E-02
RMM:   7    -0.118130544327E+04    0.16894E-04   -0.57496E-05  1538   0.916E-03    0.189E-02
RMM:   8    -0.118130545127E+04   -0.79958E-05   -0.20666E-05  1620   0.597E-03    0.104E-02
RMM:   9    -0.118130545012E+04    0.11517E-05   -0.44955E-06  1230   0.342E-03    0.928E-03
RMM:  10    -0.118130545029E+04   -0.17553E-06   -0.26613E-06  1145   0.226E-03
  18 F= -.11884625E+04 E0= -.11884625E+04  d E =-.175170E-02  mag=     0.0000
       N       E                     dE             d eps       ncg     rms          rms(c)
DAV:   1    -0.118130265762E+04    0.27925E-02   -0.11078E+00  1600   0.173E+00    0.288E-01
RMM:   2    -0.118130426264E+04   -0.16050E-02   -0.28458E-02  1538   0.246E-01    0.276E-01
RMM:   3    -0.118130435218E+04   -0.89540E-04   -0.41454E-03  1718   0.961E-02    0.239E-01
RMM:   4    -0.118130447730E+04   -0.12512E-03   -0.72539E-04  1640   0.405E-02    0.196E-01
RMM:   5    -0.118130515413E+04   -0.67683E-03   -0.12975E-03  1568   0.482E-02    0.513E-02
RMM:   6    -0.118130523868E+04   -0.84551E-04   -0.20545E-04  1814   0.224E-02    0.432E-02
RMM:   7    -0.118130520805E+04    0.30625E-04   -0.10337E-04  1536   0.124E-02    0.272E-02
RMM:   8    -0.118130522429E+04   -0.16236E-04   -0.45832E-05  1592   0.872E-03    0.144E-02
RMM:   9    -0.118130522271E+04    0.15792E-05   -0.11710E-05  1512   0.508E-03    0.136E-02
RMM:  10    -0.118130522254E+04    0.17326E-06   -0.39095E-06  1218   0.265E-03
  19 F= -.11884634E+04 E0= -.11884634E+04  d E =-.269463E-02  mag=     0.0000
       N       E                     dE             d eps       ncg     rms          rms(c)
DAV:   1    -0.118130459017E+04    0.63254E-03   -0.41301E-01  1600   0.110E+00    0.183E-01
RMM:   2    -0.118130544874E+04   -0.85857E-03   -0.13284E-02  1538   0.160E-01    0.161E-01
RMM:   3    -0.118130550645E+04   -0.57704E-04   -0.19239E-03  1696   0.605E-02    0.141E-01
RMM:   4    -0.118130558990E+04   -0.83449E-04   -0.30553E-04  1618   0.258E-02    0.106E-01
RMM:   5    -0.118130583203E+04   -0.24214E-03   -0.47503E-04  1558   0.294E-02    0.309E-02
RMM:   6    -0.118130584545E+04   -0.13413E-04   -0.58470E-05  1723   0.132E-02    0.256E-02
RMM:   7    -0.118130584088E+04    0.45685E-05   -0.41132E-05  1538   0.788E-03    0.126E-02
RMM:   8    -0.118130584453E+04   -0.36534E-05   -0.10294E-05  1465   0.437E-03    0.831E-03
RMM:   9    -0.118130584393E+04    0.60664E-06   -0.24506E-06  1108   0.263E-03
  20 F= -.11884647E+04 E0= -.11884647E+04  d E =-.128343E-02  mag=    -0.0000
       N       E                     dE             d eps       ncg     rms          rms(c)
DAV:   1    -0.118130502450E+04    0.82003E-03   -0.25634E-01  1600   0.865E-01    0.144E-01
RMM:   2    -0.118130555300E+04   -0.52851E-03   -0.82145E-03  1538   0.126E-01    0.127E-01
RMM:   3    -0.118130558937E+04   -0.36363E-04   -0.11818E-03  1698   0.477E-02    0.110E-01
RMM:   4    -0.118130564758E+04   -0.58210E-04   -0.20483E-04  1620   0.210E-02    0.822E-02
RMM:   5    -0.118130579380E+04   -0.14622E-03   -0.28052E-04  1560   0.228E-02    0.248E-02
RMM:   6    -0.118130580342E+04   -0.96251E-05   -0.36588E-05  1750   0.104E-02    0.204E-02
RMM:   7    -0.118130580054E+04    0.28758E-05   -0.27369E-05  1524   0.634E-03    0.985E-03
RMM:   8    -0.118130580298E+04   -0.24327E-05   -0.65589E-06  1356   0.353E-03    0.651E-03
RMM:   9    -0.118130580258E+04    0.39994E-06   -0.14585E-06  1040   0.215E-03
  21 F= -.11884652E+04 E0= -.11884652E+04  d E =-.176588E-02  mag=     0.0000
       N       E                     dE             d eps       ncg     rms          rms(c)
DAV:   1    -0.118130119640E+04    0.46066E-02   -0.10249E+00  1600   0.173E+00    0.288E-01
RMM:   2    -0.118130334603E+04   -0.21496E-02   -0.32566E-02  1538   0.249E-01    0.252E-01
RMM:   3    -0.118130353550E+04   -0.18947E-03   -0.47926E-03  1696   0.947E-02    0.220E-01
RMM:   4    -0.118130368441E+04   -0.14891E-03   -0.75269E-04  1620   0.402E-02    0.164E-01
RMM:   5    -0.118130426075E+04   -0.57634E-03   -0.11494E-03  1564   0.454E-02    0.486E-02
RMM:   6    -0.118130428131E+04   -0.20561E-04   -0.13371E-04  1759   0.201E-02    0.400E-02
RMM:   7    -0.118130427086E+04    0.10456E-04   -0.97246E-05  1538   0.121E-02    0.195E-02
RMM:   8    -0.118130428019E+04   -0.93345E-05   -0.26288E-05  1692   0.683E-03    0.126E-02
RMM:   9    -0.118130427870E+04    0.14905E-05   -0.53621E-06  1326   0.356E-03    0.853E-03
RMM:  10    -0.118130427930E+04   -0.59440E-06   -0.32714E-06  1200   0.252E-03
  22 F= -.11884647E+04 E0= -.11884647E+04  d E =-.129589E-02  mag=    -0.0000
       N       E                     dE             d eps       ncg     rms          rms(c)
DAV:   1    -0.118130381607E+04    0.46264E-03   -0.59795E-01  1600   0.132E+00    0.220E-01
RMM:   2    -0.118130505040E+04   -0.12343E-02   -0.18984E-02  1538   0.191E-01    0.195E-01
RMM:   3    -0.118130514011E+04   -0.89719E-04   -0.27908E-03  1702   0.729E-02    0.170E-01
RMM:   4    -0.118130524163E+04   -0.10152E-03   -0.43348E-04  1642   0.303E-02    0.133E-01
RMM:   5    -0.118130559171E+04   -0.35008E-03   -0.66325E-04  1566   0.346E-02    0.376E-02
RMM:   6    -0.118130561949E+04   -0.27783E-04   -0.88609E-05  1802   0.156E-02    0.309E-02
RMM:   7    -0.118130561124E+04    0.82520E-05   -0.54359E-05  1536   0.903E-03    0.164E-02
RMM:   8    -0.118130561884E+04   -0.75951E-05   -0.17965E-05  1622   0.558E-03    0.101E-02
RMM:   9    -0.118130561806E+04    0.78034E-06   -0.43177E-06  1249   0.333E-03
  23 F= -.11884653E+04 E0= -.11884653E+04  d E =-.182868E-02  mag=    -0.0000
       N       E                     dE             d eps       ncg     rms          rms(c)
DAV:   1    -0.118130526743E+04    0.35141E-03   -0.38800E-01  1600   0.104E+00    0.176E-01
RMM:   2    -0.118130600674E+04   -0.73932E-03   -0.11656E-02  1544   0.150E-01    0.145E-01
RMM:   3    -0.118130606391E+04   -0.57165E-04   -0.17027E-03  1684   0.568E-02    0.126E-01
RMM:   4    -0.118130616480E+04   -0.10089E-03   -0.30323E-04  1606   0.259E-02    0.836E-02
RMM:   5    -0.118130634125E+04   -0.17645E-03   -0.31078E-04  1558   0.243E-02    0.285E-02
RMM:   6    -0.118130634522E+04   -0.39701E-05   -0.33069E-05  1619   0.109E-02    0.193E-02
RMM:   7    -0.118130634788E+04   -0.26672E-05   -0.25479E-05  1498   0.650E-03    0.104E-02
RMM:   8    -0.118130634907E+04   -0.11824E-05   -0.52742E-06  1283   0.332E-03    0.728E-03
RMM:   9    -0.118130634886E+04    0.20720E-06   -0.20121E-06  1077   0.226E-03
  24 F= -.11884665E+04 E0= -.11884665E+04  d E =-.126921E-02  mag=    -0.0000
       N       E                     dE             d eps       ncg     rms          rms(c)
DAV:   1    -0.118130162165E+04    0.47274E-02   -0.17329E+00  1600   0.220E+00    0.370E-01
RMM:   2    -0.118130504860E+04   -0.34270E-02   -0.52028E-02  1544   0.319E-01    0.306E-01
RMM:   3    -0.118130538516E+04   -0.33656E-03   -0.77253E-03  1682   0.121E-01    0.266E-01
RMM:   4    -0.118130562227E+04   -0.23711E-03   -0.12933E-03  1606   0.534E-02    0.183E-01
RMM:   5    -0.118130643485E+04   -0.81258E-03   -0.15382E-03  1564   0.530E-02    0.617E-02
RMM:   6    -0.118130644790E+04   -0.13054E-04   -0.15249E-04  1653   0.233E-02    0.423E-02
RMM:   7    -0.118130645478E+04   -0.68796E-05   -0.11443E-04  1538   0.138E-02    0.222E-02
RMM:   8    -0.118130646047E+04   -0.56924E-05   -0.28984E-05  1676   0.733E-03    0.154E-02
RMM:   9    -0.118130645977E+04    0.70377E-06   -0.88063E-06  1411   0.408E-03
  25 F= -.11884678E+04 E0= -.11884678E+04  d E =-.252336E-02  mag=    -0.0000
       N       E                     dE             d eps       ncg     rms          rms(c)
DAV:   1    -0.118130615335E+04    0.30712E-03   -0.63733E-01  1600   0.127E+00    0.209E-01
RMM:   2    -0.118130693256E+04   -0.77921E-03   -0.14508E-02  1538   0.183E-01    0.192E-01
RMM:   3    -0.118130695425E+04   -0.21688E-04   -0.22478E-03  1708   0.719E-02    0.167E-01
RMM:   4    -0.118130703213E+04   -0.77883E-04   -0.40117E-04  1618   0.311E-02    0.132E-01
RMM:   5    -0.118130741681E+04   -0.38467E-03   -0.81344E-04  1562   0.370E-02    0.403E-02
RMM:   6    -0.118130743433E+04   -0.17522E-04   -0.82516E-05  1697   0.157E-02    0.323E-02
RMM:   7    -0.118130742685E+04    0.74827E-05   -0.78706E-05  1536   0.105E-02    0.161E-02
RMM:   8    -0.118130743109E+04   -0.42426E-05   -0.10559E-05  1545   0.514E-03    0.116E-02
RMM:   9    -0.118130743069E+04    0.40166E-06   -0.45893E-06  1308   0.295E-03
  26 F= -.11884694E+04 E0= -.11884694E+04  d E =-.161534E-02  mag=    -0.0000
       N       E                     dE             d eps       ncg     rms          rms(c)
DAV:   1    -0.118130697990E+04    0.45119E-03   -0.23505E-01  1600   0.775E-01    0.127E-01
RMM:   2    -0.118130726864E+04   -0.28874E-03   -0.53726E-03  1538   0.111E-01    0.118E-01
RMM:   3    -0.118130727052E+04   -0.18762E-05   -0.82813E-04  1710   0.437E-02    0.102E-01
RMM:   4    -0.118130731233E+04   -0.41812E-04   -0.14734E-04  1614   0.189E-02    0.813E-02
RMM:   5    -0.118130745043E+04   -0.13810E-03   -0.30853E-04  1562   0.228E-02    0.252E-02
RMM:   6    -0.118130745780E+04   -0.73686E-05   -0.31577E-05  1668   0.969E-03    0.205E-02
RMM:   7    -0.118130745477E+04    0.30346E-05   -0.30112E-05  1532   0.647E-03    0.104E-02
RMM:   8    -0.118130745651E+04   -0.17395E-05   -0.40896E-06  1222   0.321E-03    0.736E-03
RMM:   9    -0.118130745637E+04    0.13525E-06   -0.17011E-06  1054   0.208E-03
  27 F= -.11884698E+04 E0= -.11884698E+04  d E =-.203252E-02  mag=    -0.0000
       N       E                     dE             d eps       ncg     rms          rms(c)
DAV:   1    -0.118130766278E+04   -0.20628E-03   -0.43990E-01  1600   0.103E+00    0.171E-01
RMM:   2    -0.118130804052E+04   -0.37774E-03   -0.84232E-03  1540   0.144E-01    0.165E-01
RMM:   3    -0.118130801988E+04    0.20639E-04   -0.13562E-03  1720   0.582E-02    0.143E-01
RMM:   4    -0.118130807908E+04   -0.59199E-04   -0.26154E-04  1634   0.254E-02    0.119E-01
RMM:   5    -0.118130836007E+04   -0.28099E-03   -0.55472E-04  1554   0.304E-02    0.389E-02
RMM:   6    -0.118130838475E+04   -0.24675E-04   -0.69605E-05  1762   0.134E-02    0.322E-02
RMM:   7    -0.118130837478E+04    0.99691E-05   -0.66472E-05  1536   0.933E-03    0.187E-02
RMM:   8    -0.118130837856E+04   -0.37794E-05   -0.55360E-06  1333   0.443E-03    0.145E-02
RMM:   9    -0.118130837801E+04    0.54800E-06   -0.73230E-06  1364   0.332E-03
  28 F= -.11884712E+04 E0= -.11884712E+04  d E =-.139352E-02  mag=    -0.0000
