       N       E                     dE             d eps       ncg     rms          rms(c)
DAV:   1     0.495364776407E+04    0.49536E+04   -0.17645E+05  1872   0.923E+02
DAV:   2    -0.518927852430E+02   -0.50055E+04   -0.45820E+04  2520   0.209E+02
DAV:   3    -0.119438203231E+04   -0.11425E+04   -0.11367E+04  2052   0.110E+02
DAV:   4    -0.124155326239E+04   -0.47171E+02   -0.46903E+02  2016   0.298E+01
DAV:   5    -0.124275783472E+04   -0.12046E+01   -0.12015E+01  2340   0.437E+00    0.682E+01
RMM:   6    -0.122964780214E+04    0.13110E+02   -0.41452E+01  1592   0.613E+00    0.597E+01
RMM:   7    -0.121460966212E+04    0.15038E+02   -0.61437E+00  1587   0.277E+00    0.449E+01
RMM:   8    -0.119308368482E+04    0.21526E+02   -0.20165E+01  1584   0.521E+00    0.317E+01
RMM:   9    -0.117640282946E+04    0.16681E+02   -0.26160E+01  1584   0.584E+00    0.215E+01
RMM:  10    -0.117529294950E+04    0.11099E+01   -0.25591E+01  1584   0.576E+00    0.106E+01
RMM:  11    -0.117509896161E+04    0.19399E+00   -0.20977E+00  1611   0.178E+00    0.662E+00
RMM:  12    -0.117449311077E+04    0.60585E+00   -0.10208E+00  1585   0.106E+00    0.481E+00
RMM:  13    -0.117422258510E+04    0.27053E+00   -0.92503E-01  1584   0.107E+00    0.131E+00
RMM:  14    -0.117417484517E+04    0.47740E-01   -0.68848E-02  1599   0.280E-01    0.852E-01
RMM:  15    -0.117416845396E+04    0.63912E-02   -0.21232E-02  1585   0.158E-01    0.446E-01
RMM:  16    -0.117416846778E+04   -0.13818E-04   -0.50217E-03  1605   0.841E-02    0.291E-01
RMM:  17    -0.117416806929E+04    0.39849E-03   -0.15099E-03  1414   0.425E-02    0.196E-01
RMM:  18    -0.117416820522E+04   -0.13593E-03   -0.60307E-04  1251   0.259E-02    0.126E-01
RMM:  19    -0.117416827160E+04   -0.66384E-04   -0.23354E-04  1097   0.200E-02
   1 F= -.11813444E+04 E0= -.11813444E+04  d E =-.118134E+04  mag=     0.0021
       N       E                     dE             d eps       ncg     rms          rms(c)
DAV:   1    -0.117416180997E+04    0.63952E-02   -0.20400E+00  1620   0.229E+00    0.499E-01
RMM:   2    -0.117416900000E+04   -0.71900E-02   -0.83480E-02  1594   0.371E-01    0.510E-01
RMM:   3    -0.117416744181E+04    0.15582E-02   -0.36769E-03  1838   0.734E-02    0.496E-01
RMM:   4    -0.117416646318E+04    0.97862E-03   -0.19191E-03  1576   0.487E-02    0.323E-01
RMM:   5    -0.117416664417E+04   -0.18099E-03   -0.43217E-03  1584   0.724E-02    0.105E-01
RMM:   6    -0.117416646142E+04    0.18275E-03   -0.87181E-05  1050   0.144E-02    0.900E-02
RMM:   7    -0.117416627598E+04    0.18545E-03   -0.12715E-03  1530   0.355E-02    0.351E-02
RMM:   8    -0.117416628350E+04   -0.75256E-05   -0.56175E-05  1004   0.967E-03
   2 F= -.11813434E+04 E0= -.11813434E+04  d E =0.988482E-03  mag=    -0.0000
       N       E                     dE             d eps       ncg     rms          rms(c)
DAV:   1    -0.117416954775E+04   -0.32718E-02   -0.59776E-01  1692   0.124E+00    0.277E-01
RMM:   2    -0.117417142417E+04   -0.18764E-02   -0.22807E-02  1590   0.198E-01    0.283E-01
RMM:   3    -0.117417097010E+04    0.45407E-03   -0.88632E-04  1357   0.376E-02    0.276E-01
RMM:   4    -0.117417066787E+04    0.30223E-03   -0.61059E-04  1422   0.286E-02    0.175E-01
RMM:   5    -0.117417071929E+04   -0.51414E-04   -0.11002E-03  1558   0.372E-02    0.580E-02
RMM:   6    -0.117417066164E+04    0.57649E-04   -0.31284E-05  1006   0.818E-03
   3 F= -.11813473E+04 E0= -.11813473E+04  d E =-.284421E-02  mag=    -0.0000
       N       E                     dE             d eps       ncg     rms          rms(c)
DAV:   1    -0.117417080172E+04   -0.82434E-04   -0.93000E-01  1692   0.140E+00    0.318E-01
RMM:   2    -0.117417239563E+04   -0.15939E-02   -0.21542E-02  1586   0.193E-01    0.289E-01
RMM:   3    -0.117417176689E+04    0.62873E-03   -0.89594E-04  1378   0.387E-02    0.248E-01
RMM:   4    -0.117417124210E+04    0.52479E-03   -0.35385E-03  1584   0.655E-02    0.721E-02
RMM:   5    -0.117417123069E+04    0.11418E-04   -0.11584E-04  1064   0.152E-02
   4 F= -.11813482E+04 E0= -.11813482E+04  d E =-.901319E-03  mag=    -0.0000
       N       E                     dE             d eps       ncg     rms          rms(c)
DAV:   1    -0.117417192240E+04   -0.68029E-03   -0.14580E-01  1728   0.554E-01    0.115E-01
RMM:   2    -0.117417210390E+04   -0.18150E-03   -0.30731E-03  1580   0.720E-02    0.105E-01
RMM:   3    -0.117417198105E+04    0.12285E-03   -0.11810E-04  1024   0.150E-02    0.910E-02
RMM:   4    -0.117417186060E+04    0.12045E-03   -0.82226E-04  1548   0.319E-02    0.262E-02
RMM:   5    -0.117417185813E+04    0.24717E-05   -0.21887E-05   978   0.711E-03
   5 F= -.11813487E+04 E0= -.11813487E+04  d E =-.139657E-02  mag=    -0.0000
       N       E                     dE             d eps       ncg     rms          rms(c)
DAV:   1    -0.117417140435E+04    0.45625E-03   -0.60745E-01  1728   0.114E+00    0.189E-01
RMM:   2    -0.117417256841E+04   -0.11641E-02   -0.14807E-02  1586   0.158E-01    0.169E-01
RMM:   3    -0.117417227671E+04    0.29170E-03   -0.53354E-04  1260   0.306E-02    0.154E-01
RMM:   4    -0.117417205206E+04    0.22466E-03   -0.17250E-03  1584   0.458E-02    0.528E-02
RMM:   5    -0.117417203876E+04    0.13297E-04   -0.64101E-05  1022   0.114E-02
   6 F= -.11813493E+04 E0= -.11813493E+04  d E =-.611081E-03  mag=     0.0000
       N       E                     dE             d eps       ncg     rms          rms(c)
DAV:   1    -0.117417240059E+04   -0.34854E-03   -0.78565E-02  1728   0.410E-01    0.654E-02
RMM:   2    -0.117417250863E+04   -0.10804E-03   -0.16634E-03  1490   0.540E-02    0.588E-02
RMM:   3    -0.117417245356E+04    0.55073E-04   -0.61670E-05   980   0.117E-02
   7 F= -.11813495E+04 E0= -.11813495E+04  d E =-.870532E-03  mag=    -0.0000
