       N       E                     dE             d eps       ncg     rms          rms(c)
DAV:   1     0.454880292655E+04    0.45488E+04   -0.17720E+05  1944   0.911E+02
DAV:   2    -0.124845453918E+03   -0.46736E+04   -0.42526E+04  2520   0.203E+02
DAV:   3    -0.118973754032E+04   -0.10649E+04   -0.10598E+04  2160   0.105E+02
DAV:   4    -0.123094027893E+04   -0.41203E+02   -0.40994E+02  2052   0.271E+01
DAV:   5    -0.123198509558E+04   -0.10448E+01   -0.10426E+01  2340   0.402E+00    0.656E+01
RMM:   6    -0.121916392038E+04    0.12821E+02   -0.26641E+01  1591   0.508E+00    0.510E+01
RMM:   7    -0.120266775379E+04    0.16496E+02   -0.90597E+00  1584   0.348E+00    0.413E+01
RMM:   8    -0.117421660325E+04    0.28451E+02   -0.48510E+01  1584   0.796E+00    0.274E+01
RMM:   9    -0.116775729004E+04    0.64593E+01   -0.12044E+01  1588   0.398E+00    0.196E+01
RMM:  10    -0.116838161217E+04   -0.62432E+00   -0.12154E+01  1584   0.392E+00    0.104E+01
RMM:  11    -0.116824682433E+04    0.13479E+00   -0.26129E+00  1594   0.189E+00    0.711E+00
RMM:  12    -0.116772259812E+04    0.52423E+00   -0.22226E+00  1586   0.142E+00    0.545E+00
RMM:  13    -0.116721371925E+04    0.50888E+00   -0.12119E+00  1584   0.117E+00    0.122E+00
RMM:  14    -0.116720114072E+04    0.12579E-01   -0.44335E-02  1639   0.233E-01    0.108E+00
RMM:  15    -0.116719067707E+04    0.10464E-01   -0.22155E-02  1587   0.149E-01    0.603E-01
RMM:  16    -0.116719395085E+04   -0.32738E-02   -0.71270E-03  1586   0.968E-02    0.590E-01
RMM:  17    -0.116718924222E+04    0.47086E-02   -0.47349E-03  1585   0.717E-02    0.337E-01
RMM:  18    -0.116718843905E+04    0.80317E-03   -0.20042E-03  1580   0.461E-02    0.204E-01
RMM:  19    -0.116718772820E+04    0.71085E-03   -0.10332E-03  1561   0.328E-02    0.969E-02
RMM:  20    -0.116718764420E+04    0.83997E-04   -0.27205E-04  1107   0.160E-02
   1 F= -.11743116E+04 E0= -.11743116E+04  d E =-.117431E+04  mag=    -0.0017
       N       E                     dE             d eps       ncg     rms          rms(c)
DAV:   1    -0.116717916207E+04    0.85661E-02   -0.19475E+00  1656   0.241E+00    0.533E-01
RMM:   2    -0.116718956606E+04   -0.10404E-01   -0.11365E-01  1585   0.412E-01    0.576E-01
RMM:   3    -0.116718750403E+04    0.20620E-02   -0.45575E-03  1816   0.782E-02    0.579E-01
RMM:   4    -0.116718755498E+04   -0.50947E-04   -0.43140E-04  1150   0.217E-02
   2 F= -.11743119E+04 E0= -.11743119E+04  d E =-.285172E-03  mag=    -0.0006
       N       E                     dE             d eps       ncg     rms          rms(c)
DAV:   1    -0.116718857633E+04   -0.10723E-02   -0.47691E-01  1692   0.121E+00    0.422E-01
RMM:   2    -0.116719093332E+04   -0.23570E-02   -0.28489E-02  1585   0.206E-01    0.279E-01
RMM:   3    -0.116719012660E+04    0.80673E-03   -0.20316E-03  1627   0.489E-02    0.182E-01
RMM:   4    -0.116719010428E+04    0.22320E-04   -0.92042E-04  1487   0.328E-02
   3 F= -.11743143E+04 E0= -.11743143E+04  d E =-.264733E-02  mag=     0.0001
       N       E                     dE             d eps       ncg     rms          rms(c)
DAV:   1    -0.116718889890E+04    0.12277E-02   -0.67749E-01  1656   0.146E+00    0.321E-01
RMM:   2    -0.116719175003E+04   -0.28511E-02   -0.35818E-02  1588   0.237E-01    0.317E-01
RMM:   3    -0.116719068985E+04    0.10602E-02   -0.13682E-03  1468   0.465E-02    0.299E-01
RMM:   4    -0.116718950421E+04    0.11856E-02   -0.33337E-03  1584   0.635E-02    0.128E-01
RMM:   5    -0.116718959046E+04   -0.86249E-04   -0.10186E-03  1584   0.360E-02    0.734E-02
RMM:   6    -0.116718948367E+04    0.10679E-03   -0.89234E-05  1032   0.112E-02    0.522E-02
RMM:   7    -0.116718946838E+04    0.15296E-04   -0.22906E-04  1112   0.159E-02
   4 F= -.11743137E+04 E0= -.11743137E+04  d E =0.532880E-03  mag=    -0.0000
       N       E                     dE             d eps       ncg     rms          rms(c)
DAV:   1    -0.116719084562E+04   -0.13619E-02   -0.21350E-01  1728   0.817E-01    0.174E-01
RMM:   2    -0.116719170808E+04   -0.86246E-03   -0.11326E-02  1588   0.133E-01    0.168E-01
RMM:   3    -0.116719133102E+04    0.37705E-03   -0.41284E-04  1192   0.264E-02    0.154E-01
RMM:   4    -0.116719091027E+04    0.42076E-03   -0.15455E-03  1584   0.432E-02    0.515E-02
RMM:   5    -0.116719092222E+04   -0.11957E-04   -0.12819E-04  1054   0.146E-02
   5 F= -.11743151E+04 E0= -.11743151E+04  d E =-.863911E-03  mag=    -0.0000
