       N       E                     dE             d eps       ncg     rms          rms(c)
DAV:   1     0.485110362888E+04    0.48511E+04   -0.17487E+05  1856   0.941E+02
DAV:   2    -0.338214031146E+02   -0.48849E+04   -0.44531E+04  2432   0.214E+02
DAV:   3    -0.118877751105E+04   -0.11550E+04   -0.11485E+04  2048   0.114E+02
DAV:   4    -0.123828812050E+04   -0.49511E+02   -0.49229E+02  1920   0.324E+01
DAV:   5    -0.123974205324E+04   -0.14539E+01   -0.14506E+01  2272   0.505E+00    0.759E+01
RMM:   6    -0.122486919382E+04    0.14873E+02   -0.10028E+01  1561   0.406E+00    0.566E+01
RMM:   7    -0.119836531840E+04    0.26504E+02   -0.96857E+01  1632   0.109E+01    0.405E+01
RMM:   8    -0.119410901402E+04    0.42563E+01   -0.63113E+00  1560   0.467E+00    0.369E+01
RMM:   9    -0.118229048272E+04    0.11819E+02   -0.88524E+00  1550   0.392E+00    0.262E+01
RMM:  10    -0.117473139589E+04    0.75591E+01   -0.25473E+01  1671   0.637E+00    0.196E+01
RMM:  11    -0.117551671805E+04   -0.78532E+00   -0.51618E+00  1616   0.336E+00    0.154E+01
RMM:  12    -0.117489937974E+04    0.61734E+00   -0.23521E+00  1635   0.227E+00    0.731E+00
RMM:  13    -0.117556466400E+04   -0.66528E+00   -0.14973E+00  1631   0.144E+00    0.115E+01
RMM:  14    -0.117511824100E+04    0.44642E+00   -0.24830E-01  1553   0.775E-01    0.858E+00
RMM:  15    -0.117481110256E+04    0.30714E+00   -0.16444E-01  1547   0.544E-01    0.708E+00
RMM:  16    -0.117424746188E+04    0.56364E+00   -0.44809E-01  1655   0.746E-01    0.285E+00
RMM:  17    -0.117426880664E+04   -0.21345E-01   -0.53374E-02  1736   0.347E-01    0.263E+00
RMM:  18    -0.117433124983E+04   -0.62443E-01   -0.21352E-02  1595   0.207E-01    0.436E+00
RMM:  19    -0.117433985686E+04   -0.86070E-02   -0.10601E-02  1560   0.242E-01    0.427E+00
RMM:  20    -0.117434854416E+04   -0.86873E-02   -0.79916E-03  1587   0.124E-01    0.366E+00
RMM:  21    -0.117435029400E+04   -0.17498E-02   -0.17487E-02  1681   0.138E-01    0.226E+00
RMM:  22    -0.117436075697E+04   -0.10463E-01   -0.24396E-03  1686   0.734E-02    0.267E+00
RMM:  23    -0.117434451165E+04    0.16245E-01   -0.58436E-03  1709   0.876E-02    0.378E-01
RMM:  24    -0.117435368225E+04   -0.91706E-02   -0.33164E-03  1650   0.115E-01    0.316E-01
RMM:  25    -0.117435390529E+04   -0.22304E-03   -0.78983E-04  1672   0.442E-02    0.300E-01
RMM:  26    -0.117435460452E+04   -0.69924E-03   -0.78026E-04  1684   0.382E-02    0.563E-01
RMM:  27    -0.117435380793E+04    0.79659E-03   -0.33062E-04  1582   0.414E-02    0.108E-01
RMM:  28    -0.117435421966E+04   -0.41173E-03   -0.90702E-05  1585   0.169E-02    0.144E-01
RMM:  29    -0.117435423855E+04   -0.18889E-04   -0.53580E-05  1595   0.102E-02    0.133E-01
RMM:  30    -0.117435424429E+04   -0.57393E-05   -0.30164E-05  1558   0.119E-02    0.132E-02
RMM:  31    -0.117435425238E+04   -0.80964E-05   -0.59251E-06  1282   0.393E-03    0.145E-02
RMM:  32    -0.117435425279E+04   -0.40171E-06   -0.20426E-06  1089   0.264E-03
   1 F= -.11814081E+04 E0= -.11814064E+04  d E =-.118141E+04  mag=    -0.9641
       N       E                     dE             d eps       ncg     rms          rms(c)
DAV:   1    -0.117435245957E+04    0.17928E-02   -0.41543E-01  1696   0.108E+00    0.285E-01
RMM:   2    -0.117435336450E+04   -0.90494E-03   -0.10602E-02  1543   0.173E-01    0.534E-01
RMM:   3    -0.117435321435E+04    0.15015E-03   -0.26573E-03  1845   0.810E-02    0.287E-01
RMM:   4    -0.117435329779E+04   -0.83435E-04   -0.41379E-04  1850   0.309E-02    0.296E-01
RMM:   5    -0.117435343286E+04   -0.13507E-03   -0.73187E-05  1746   0.110E-02    0.319E-01
RMM:   6    -0.117435278267E+04    0.65019E-03   -0.42307E-03  1536   0.766E-02    0.695E-02
RMM:   7    -0.117435280807E+04   -0.25404E-04   -0.53660E-04  1633   0.365E-02    0.610E-02
RMM:   8    -0.117435282664E+04   -0.18562E-04   -0.15131E-04  1951   0.166E-02    0.678E-02
RMM:   9    -0.117435291037E+04   -0.83732E-04   -0.74039E-05  1575   0.106E-02    0.762E-02
RMM:  10    -0.117435298502E+04   -0.74649E-04   -0.90671E-05  1699   0.120E-02    0.904E-02
RMM:  11    -0.117435298270E+04    0.23136E-05   -0.17865E-05  1758   0.624E-03    0.933E-02
RMM:  12    -0.117435298309E+04   -0.38977E-06   -0.69468E-06  1421   0.380E-03
   2 F= -.11814074E+04 E0= -.11814057E+04  d E =0.686026E-03  mag=    -0.9629
       N       E                     dE             d eps       ncg     rms          rms(c)
DAV:   1    -0.117435528960E+04   -0.23069E-02   -0.12059E-01  1792   0.581E-01    0.198E-01
RMM:   2    -0.117435521494E+04    0.74663E-04   -0.23793E-03  1539   0.879E-02    0.302E-01
RMM:   3    -0.117435509820E+04    0.11674E-03   -0.55799E-04  1797   0.396E-02    0.182E-01
RMM:   4    -0.117435478199E+04    0.31621E-03   -0.49163E-04  1590   0.284E-02    0.168E-01
RMM:   5    -0.117435460992E+04    0.17207E-03   -0.12086E-03  1575   0.407E-02    0.630E-02
RMM:   6    -0.117435460290E+04    0.70207E-05   -0.12226E-04  1613   0.200E-02    0.531E-02
RMM:   7    -0.117435460295E+04   -0.55254E-07   -0.60508E-05  1552   0.108E-02    0.305E-02
RMM:   8    -0.117435459922E+04    0.37280E-05   -0.17629E-05  1669   0.655E-03    0.191E-02
RMM:   9    -0.117435459999E+04   -0.76675E-06   -0.52720E-06  1367   0.338E-03
   3 F= -.11814087E+04 E0= -.11814070E+04  d E =-.616126E-03  mag=    -0.9630
       N       E                     dE             d eps       ncg     rms          rms(c)
DAV:   1    -0.117435466516E+04   -0.65937E-04   -0.22480E-03  1760   0.792E-02    0.226E-02
RMM:   2    -0.117435466880E+04   -0.36448E-05   -0.45633E-05  1536   0.124E-02    0.411E-02
RMM:   3    -0.117435466726E+04    0.15476E-05   -0.95079E-06  1510   0.562E-03    0.250E-02
RMM:   4    -0.117435466689E+04    0.37013E-06   -0.19811E-06  1064   0.263E-03
   4 F= -.11814088E+04 E0= -.11814071E+04  d E =-.640617E-03  mag=    -0.9631
