       N       E                     dE             d eps       ncg     rms          rms(c)
DAV:   1     0.489965850880E+04    0.48997E+04   -0.17229E+05  1872   0.915E+02
DAV:   2    -0.522364106275E+02   -0.49519E+04   -0.45287E+04  2520   0.208E+02
DAV:   3    -0.118644834756E+04   -0.11342E+04   -0.11288E+04  2088   0.110E+02
DAV:   4    -0.123279446547E+04   -0.46346E+02   -0.46105E+02  2052   0.292E+01
DAV:   5    -0.123398418900E+04   -0.11897E+01   -0.11874E+01  2412   0.428E+00    0.649E+01
RMM:   6    -0.121737916454E+04    0.16605E+02   -0.22829E+01  1584   0.495E+00    0.518E+01
RMM:   7    -0.120061968924E+04    0.16759E+02   -0.11012E+01  1584   0.377E+00    0.410E+01
RMM:   8    -0.117351964704E+04    0.27100E+02   -0.45093E+01  1584   0.767E+00    0.308E+01
RMM:   9    -0.117143440923E+04    0.20852E+01   -0.17943E+00  1617   0.167E+00    0.238E+01
RMM:  10    -0.117055162018E+04    0.88279E+00   -0.35733E+01  1584   0.647E+00    0.124E+01
RMM:  11    -0.117115803514E+04   -0.60641E+00   -0.28320E+00  1593   0.197E+00    0.101E+01
RMM:  12    -0.116887384019E+04    0.22842E+01   -0.20582E+00  1584   0.142E+00    0.633E+00
RMM:  13    -0.116794048720E+04    0.93335E+00   -0.10274E+00  1584   0.921E-01    0.360E+00
RMM:  14    -0.116768020057E+04    0.26029E+00   -0.20665E-01  1584   0.416E-01    0.295E+00
RMM:  15    -0.116729664916E+04    0.38355E+00   -0.15881E-01  1588   0.320E-01    0.220E+00
RMM:  16    -0.116711959153E+04    0.17706E+00   -0.10909E-01  1587   0.229E-01    0.150E+00
RMM:  17    -0.116706727898E+04    0.52313E-01   -0.32528E-02  1591   0.121E-01    0.117E+00
RMM:  18    -0.116708950598E+04   -0.22227E-01   -0.10576E-02  1574   0.824E-02    0.124E+00
RMM:  19    -0.116704385884E+04    0.45647E-01   -0.42182E-02  1584   0.197E-01    0.632E-01
RMM:  20    -0.116704154620E+04    0.23126E-02   -0.37176E-03  1600   0.594E-02    0.493E-01
RMM:  21    -0.116703650898E+04    0.50372E-02   -0.39210E-03  1505   0.506E-02    0.285E-01
RMM:  22    -0.116703555443E+04    0.95454E-03   -0.21041E-03  1351   0.328E-02    0.226E-01
RMM:  23    -0.116703529210E+04    0.26233E-03   -0.52712E-04  1113   0.176E-02    0.160E-01
RMM:  24    -0.116703532227E+04   -0.30168E-04   -0.24941E-04  1091   0.131E-02
   1 F= -.11742048E+04 E0= -.11742048E+04  d E =-.117420E+04  mag=    -0.0031
       N       E                     dE             d eps       ncg     rms          rms(c)
DAV:   1    -0.116703413834E+04    0.11538E-02   -0.19619E+00  1584   0.195E+00    0.505E-01
RMM:   2    -0.116703609087E+04   -0.19525E-02   -0.43786E-02  1584   0.276E-01    0.410E-01
RMM:   3    -0.116703568885E+04    0.40202E-03   -0.28420E-03  1661   0.596E-02    0.375E-01
RMM:   4    -0.116703409532E+04    0.15935E-02   -0.55458E-03  1584   0.816E-02    0.162E-01
RMM:   5    -0.116703420536E+04   -0.11004E-03   -0.15003E-03  1584   0.441E-02    0.970E-02
RMM:   6    -0.116703404344E+04    0.16192E-03   -0.13423E-04  1040   0.138E-02    0.710E-02
RMM:   7    -0.116703402624E+04    0.17199E-04   -0.53496E-04  1411   0.227E-02
   2 F= -.11742047E+04 E0= -.11742047E+04  d E =0.129863E-03  mag=    -0.0001
       N       E                     dE             d eps       ncg     rms          rms(c)
DAV:   1    -0.116703786461E+04   -0.38212E-02   -0.48461E-01  1728   0.967E-01    0.237E-01
RMM:   2    -0.116703823158E+04   -0.36697E-03   -0.94267E-03  1584   0.135E-01    0.206E-01
RMM:   3    -0.116703806365E+04    0.16793E-03   -0.53786E-04  1241   0.276E-02    0.188E-01
RMM:   4    -0.116703757057E+04    0.49308E-03   -0.15642E-03  1584   0.440E-02    0.764E-02
RMM:   5    -0.116703759178E+04   -0.21216E-04   -0.38939E-04  1269   0.232E-02
   3 F= -.11742077E+04 E0= -.11742077E+04  d E =-.286013E-02  mag=     0.0000
       N       E                     dE             d eps       ncg     rms          rms(c)
DAV:   1    -0.116703878811E+04   -0.12175E-02   -0.12900E+00  1620   0.148E+00    0.337E-01
RMM:   2    -0.116703996272E+04   -0.11746E-02   -0.21536E-02  1584   0.197E-01    0.283E-01
RMM:   3    -0.116703907381E+04    0.88892E-03   -0.11296E-03  1526   0.419E-02    0.232E-01
RMM:   4    -0.116703794595E+04    0.11279E-02   -0.49235E-03  1584   0.752E-02    0.841E-02
RMM:   5    -0.116703793073E+04    0.15222E-04   -0.22012E-04  1104   0.192E-02
   4 F= -.11742083E+04 E0= -.11742083E+04  d E =-.644245E-03  mag=     0.0000
       N       E                     dE             d eps       ncg     rms          rms(c)
DAV:   1    -0.116703923993E+04   -0.12940E-02   -0.24846E-01  1728   0.647E-01    0.143E-01
RMM:   2    -0.116703939776E+04   -0.15783E-03   -0.37221E-03  1580   0.821E-02    0.120E-01
RMM:   3    -0.116703918263E+04    0.21513E-03   -0.21263E-04  1051   0.189E-02    0.954E-02
RMM:   4    -0.116703895790E+04    0.22472E-03   -0.11476E-03  1578   0.367E-02    0.310E-02
RMM:   5    -0.116703895555E+04    0.23561E-05   -0.27018E-05   978   0.768E-03
   5 F= -.11742092E+04 E0= -.11742092E+04  d E =-.153618E-02  mag=     0.0000
       N       E                     dE             d eps       ncg     rms          rms(c)
DAV:   1    -0.116703883862E+04    0.11928E-03   -0.82739E-01  1728   0.111E+00    0.186E-01
RMM:   2    -0.116703977102E+04   -0.93240E-03   -0.13099E-02  1584   0.146E-01    0.159E-01
RMM:   3    -0.116703963037E+04    0.14065E-03   -0.45605E-04  1190   0.265E-02    0.145E-01
RMM:   4    -0.116703939145E+04    0.23892E-03   -0.17372E-03  1556   0.425E-02    0.499E-02
RMM:   5    -0.116703938853E+04    0.29235E-05   -0.80850E-05  1030   0.118E-02
   6 F= -.11742102E+04 E0= -.11742102E+04  d E =-.975519E-03  mag=    -0.0000
       N       E                     dE             d eps       ncg     rms          rms(c)
DAV:   1    -0.116703964344E+04   -0.25199E-03   -0.58587E-02  1728   0.294E-01    0.474E-02
RMM:   2    -0.116703970747E+04   -0.64030E-04   -0.89453E-04  1202   0.362E-02
   7 F= -.11742104E+04 E0= -.11742104E+04  d E =-.114950E-02  mag=    -0.0000
       N       E                     dE             d eps       ncg     rms          rms(c)
DAV:   1    -0.116703988363E+04   -0.24020E-03   -0.44773E-01  1728   0.769E-01    0.110E-01
RMM:   2    -0.116704039665E+04   -0.51301E-03   -0.63301E-03  1584   0.960E-02    0.984E-02
RMM:   3    -0.116704034305E+04    0.53595E-04   -0.21896E-04  1074   0.182E-02
   8 F= -.11742114E+04 E0= -.11742114E+04  d E =-.107203E-02  mag=     0.0000
       N       E                     dE             d eps       ncg     rms          rms(c)
DAV:   1    -0.116703956887E+04    0.82778E-03   -0.44939E-01  1728   0.769E-01    0.144E-01
RMM:   2    -0.116703999397E+04   -0.42510E-03   -0.59246E-03  1584   0.898E-02    0.134E-01
RMM:   3    -0.116703992755E+04    0.66423E-04   -0.21164E-04  1094   0.174E-02
   9 F= -.11742115E+04 E0= -.11742115E+04  d E =-.110421E-02  mag=    -0.0000
       N       E                     dE             d eps       ncg     rms          rms(c)
DAV:   1    -0.116704019658E+04   -0.20262E-03   -0.27706E-01  1584   0.586E-01    0.117E-01
RMM:   2    -0.116704040642E+04   -0.20984E-03   -0.35567E-03  1580   0.706E-02    0.977E-02
RMM:   3    -0.116704035858E+04    0.47844E-04   -0.13398E-04  1046   0.138E-02
  10 F= -.11742121E+04 E0= -.11742121E+04  d E =-.638001E-03  mag=     0.0000
       N       E                     dE             d eps       ncg     rms          rms(c)
DAV:   1    -0.116704012955E+04    0.27687E-03   -0.34369E-01  1584   0.649E-01    0.147E-01
RMM:   2    -0.116704038146E+04   -0.25191E-03   -0.45273E-03  1582   0.773E-02    0.122E-01
RMM:   3    -0.116704029872E+04    0.82732E-04   -0.16712E-04  1072   0.154E-02
  11 F= -.11742123E+04 E0= -.11742123E+04  d E =-.809821E-03  mag=    -0.0000
