       N       E                     dE             d eps       ncg     rms          rms(c)
DAV:   1     0.488776299090E+04    0.48878E+04   -0.17246E+05  1872   0.909E+02
DAV:   2    -0.529370715945E+02   -0.49407E+04   -0.44954E+04  2520   0.206E+02
DAV:   3    -0.118847544346E+04   -0.11355E+04   -0.11312E+04  2160   0.109E+02
DAV:   4    -0.123330875431E+04   -0.44833E+02   -0.44620E+02  2052   0.285E+01
DAV:   5    -0.123446163185E+04   -0.11529E+01   -0.11506E+01  2340   0.425E+00    0.695E+01
RMM:   6    -0.121884802503E+04    0.15614E+02   -0.13050E+01  1637   0.371E+00    0.532E+01
RMM:   7    -0.119661497327E+04    0.22233E+02   -0.20031E+01  1595   0.518E+00    0.379E+01
RMM:   8    -0.117291903013E+04    0.23696E+02   -0.38135E+01  1587   0.706E+00    0.240E+01
RMM:   9    -0.117056205740E+04    0.23570E+01   -0.28675E+01  1589   0.600E+00    0.117E+01
RMM:  10    -0.117101792839E+04   -0.45587E+00   -0.29093E+00  1650   0.207E+00    0.872E+00
RMM:  11    -0.117060253609E+04    0.41539E+00   -0.93479E-01  1668   0.944E-01    0.764E+00
RMM:  12    -0.117001916662E+04    0.58337E+00   -0.10856E+00  1610   0.110E+00    0.220E+00
RMM:  13    -0.116993135538E+04    0.87811E-01   -0.32095E-01  1646   0.621E-01    0.178E+00
RMM:  14    -0.116991995095E+04    0.11404E-01   -0.68746E-02  1732   0.278E-01    0.845E-01
RMM:  15    -0.116991695480E+04    0.29962E-02   -0.53032E-03  1771   0.897E-02    0.784E-01
RMM:  16    -0.116991284621E+04    0.41086E-02   -0.88544E-03  1619   0.951E-02    0.404E-01
RMM:  17    -0.116991267458E+04    0.17163E-03   -0.41431E-03  1643   0.669E-02    0.177E-01
RMM:  18    -0.116991258539E+04    0.89187E-04   -0.71403E-04  1468   0.293E-02
   1 F= -.11770027E+04 E0= -.11769981E+04  d E =-.117700E+04  mag=     2.8712
       N       E                     dE             d eps       ncg     rms          rms(c)
DAV:   1    -0.116990642832E+04    0.62463E-02   -0.19235E+00  1728   0.203E+00    0.101E+00
RMM:   2    -0.116991513151E+04   -0.87032E-02   -0.92521E-02  1753   0.356E-01    0.697E-01
RMM:   3    -0.116991470880E+04    0.42271E-03   -0.68625E-03  1836   0.849E-02    0.587E-01
RMM:   4    -0.116991280718E+04    0.19016E-02   -0.78409E-03  1599   0.885E-02    0.302E-01
RMM:   5    -0.116991273077E+04    0.76409E-04   -0.65348E-04  1294   0.278E-02
   2 F= -.11770032E+04 E0= -.11769931E+04  d E =-.456949E-03  mag=     2.5529
       N       E                     dE             d eps       ncg     rms          rms(c)
DAV:   1    -0.116991210601E+04    0.70117E-03   -0.58284E-01  1836   0.112E+00    0.616E-01
RMM:   2    -0.116991538780E+04   -0.32818E-02   -0.28334E-02  1753   0.195E-01    0.414E-01
RMM:   3    -0.116991584358E+04   -0.45578E-03   -0.34442E-03  1679   0.566E-02    0.292E-01
RMM:   4    -0.116991532426E+04    0.51932E-03   -0.21606E-03  1571   0.463E-02    0.191E-01
RMM:   5    -0.116991522723E+04    0.97022E-04   -0.41381E-04  1194   0.200E-02
   3 F= -.11770055E+04 E0= -.11769995E+04  d E =-.278509E-02  mag=     2.8196
       N       E                     dE             d eps       ncg     rms          rms(c)
DAV:   1    -0.116991388063E+04    0.14436E-02   -0.38133E-01  1872   0.974E-01    0.289E-01
RMM:   2    -0.116991545273E+04   -0.15721E-02   -0.16100E-02  1713   0.155E-01    0.233E-01
RMM:   3    -0.116991539515E+04    0.57575E-04   -0.11697E-03  1470   0.389E-02    0.175E-01
RMM:   4    -0.116991517008E+04    0.22507E-03   -0.10924E-03  1564   0.355E-02    0.848E-02
RMM:   5    -0.116991521904E+04   -0.48962E-04   -0.51289E-05  1072   0.986E-03
   4 F= -.11770053E+04 E0= -.11769978E+04  d E =0.178722E-03  mag=     2.7343
       N       E                     dE             d eps       ncg     rms          rms(c)
DAV:   1    -0.116991555974E+04   -0.38966E-03   -0.10600E-01  1872   0.514E-01    0.153E-01
RMM:   2    -0.116991598725E+04   -0.42751E-03   -0.44182E-03  1709   0.827E-02    0.124E-01
RMM:   3    -0.116991597442E+04    0.12831E-04   -0.33549E-04  1116   0.211E-02
   5 F= -.11770062E+04 E0= -.11769995E+04  d E =-.666933E-03  mag=     2.7960
