       N       E                     dE             d eps       ncg     rms          rms(c)
DAV:   1     0.486746339284E+04    0.48675E+04   -0.17517E+05  1824   0.938E+02
DAV:   2    -0.440824492074E+02   -0.49115E+04   -0.44717E+04  2464   0.215E+02
DAV:   3    -0.117955626823E+04   -0.11355E+04   -0.11303E+04  1984   0.113E+02
DAV:   4    -0.122734085694E+04   -0.47785E+02   -0.47515E+02  1984   0.309E+01
DAV:   5    -0.122855301216E+04   -0.12122E+01   -0.12084E+01  2304   0.447E+00    0.691E+01
RMM:   6    -0.120648823910E+04    0.22065E+02   -0.36739E+01  1571   0.862E+00    0.725E+01
RMM:   7    -0.119991861987E+04    0.65696E+01   -0.86509E+00  1564   0.387E+00    0.537E+01
RMM:   8    -0.119048797685E+04    0.94306E+01   -0.58794E+00  1539   0.348E+00    0.424E+01
RMM:   9    -0.116481917249E+04    0.25669E+02   -0.46868E+01  1843   0.858E+00    0.285E+01
RMM:  10    -0.115688656237E+04    0.79326E+01   -0.14451E+01  1637   0.568E+00    0.201E+01
RMM:  11    -0.115843264510E+04   -0.15461E+01   -0.63995E+00  1555   0.381E+00    0.166E+01
RMM:  12    -0.115845689573E+04   -0.24251E-01   -0.36649E+00  1553   0.323E+00    0.898E+00
RMM:  13    -0.115867570319E+04   -0.21881E+00   -0.94171E-01  1636   0.147E+00    0.654E+00
RMM:  14    -0.115835848131E+04    0.31722E+00   -0.13302E+00  1551   0.150E+00    0.384E+00
RMM:  15    -0.115846387672E+04   -0.10540E+00   -0.13258E-01  1539   0.607E-01    0.306E+00
RMM:  16    -0.115849315820E+04   -0.29281E-01   -0.65298E-02  1566   0.344E-01    0.263E+00
RMM:  17    -0.115849833639E+04   -0.51782E-02   -0.11833E-02  1678   0.167E-01    0.256E+00
RMM:  18    -0.115858480903E+04   -0.86473E-01   -0.10804E-01  1688   0.352E-01    0.182E+00
RMM:  19    -0.115865908127E+04   -0.74272E-01   -0.94762E-02  1714   0.328E-01    0.121E+00
RMM:  20    -0.115867621119E+04   -0.17130E-01   -0.28463E-02  1610   0.265E-01    0.936E-01
RMM:  21    -0.115869665501E+04   -0.20444E-01   -0.55545E-02  1787   0.311E-01    0.468E-01
RMM:  22    -0.115869637004E+04    0.28497E-03   -0.35871E-03  1552   0.994E-02    0.296E-01
RMM:  23    -0.115869698504E+04   -0.61500E-03   -0.14240E-03  1553   0.552E-02    0.260E-01
RMM:  24    -0.115869907881E+04   -0.20938E-02   -0.10599E-03  1644   0.489E-02    0.176E-01
RMM:  25    -0.115869912917E+04   -0.50361E-04   -0.31548E-04  1626   0.238E-02    0.117E-01
RMM:  26    -0.115869923118E+04   -0.10201E-03   -0.26402E-04  1688   0.213E-02    0.754E-02
RMM:  27    -0.115869924991E+04   -0.18735E-04   -0.14739E-04  1666   0.143E-02    0.490E-02
RMM:  28    -0.115869922403E+04    0.25885E-04   -0.24025E-05  1547   0.794E-03    0.394E-02
RMM:  29    -0.115869927785E+04   -0.53822E-04   -0.19875E-05  1537   0.680E-03    0.292E-02
RMM:  30    -0.115869930148E+04   -0.23629E-04   -0.10141E-05  1318   0.491E-03    0.263E-02
RMM:  31    -0.115869932427E+04   -0.22790E-04   -0.12564E-05  1318   0.465E-03    0.209E-02
RMM:  32    -0.115869935249E+04   -0.28217E-04   -0.16711E-05  1371   0.518E-03    0.182E-02
RMM:  33    -0.115869937515E+04   -0.22665E-04   -0.95447E-06  1263   0.384E-03    0.177E-02
RMM:  34    -0.115869939811E+04   -0.22956E-04   -0.14599E-05  1300   0.455E-03    0.181E-02
RMM:  35    -0.115869939470E+04    0.34033E-05   -0.69179E-05  1563   0.980E-03    0.192E-02
RMM:  36    -0.115869938682E+04    0.78826E-05   -0.16339E-04  1790   0.147E-02    0.201E-02
RMM:  37    -0.115869930959E+04    0.77227E-04   -0.42133E-04  1963   0.232E-02    0.227E-02
RMM:  38    -0.115869948086E+04   -0.17126E-03   -0.13203E-04  1748   0.130E-02    0.179E-02
RMM:  39    -0.115869955091E+04   -0.70048E-04   -0.69270E-05  1587   0.966E-03    0.144E-02
RMM:  40    -0.115869963515E+04   -0.84242E-04   -0.15263E-05  1305   0.539E-03    0.978E-03
RMM:  41    -0.115869960239E+04    0.32756E-04   -0.46487E-05  1467   0.804E-03    0.953E-03
RMM:  42    -0.115869966807E+04   -0.65673E-04   -0.52076E-06  1159   0.361E-03    0.482E-03
RMM:  43    -0.115869967058E+04   -0.25184E-05   -0.42620E-06  1132   0.269E-03    0.335E-03
RMM:  44    -0.115869967917E+04   -0.85904E-05   -0.66660E-07  1018   0.161E-03    0.194E-03
RMM:  45    -0.115869967900E+04    0.17239E-06   -0.42232E-07   980   0.112E-03
   1 F= -.11586997E+04 E0= -.11586997E+04  d E =-.115870E+04  mag=     1.0000
       N       E                     dE             d eps       ncg     rms          rms(c)
DAV:   1    -0.115836794222E+04    0.33174E+00   -0.30936E+01  1664   0.128E+01    0.173E+00
RMM:   2    -0.115855483121E+04   -0.18689E+00   -0.19848E+00  1564   0.231E+00    0.155E+00
RMM:   3    -0.115857633968E+04   -0.21508E-01   -0.31058E-01  1785   0.820E-01    0.135E+00
RMM:   4    -0.115857339470E+04    0.29450E-02   -0.63166E-02  1817   0.325E-01    0.120E+00
RMM:   5    -0.115856047003E+04    0.12925E-01   -0.28361E-02  1567   0.217E-01    0.784E-01
RMM:   6    -0.115855826083E+04    0.22092E-02   -0.35880E-02  1569   0.234E-01    0.441E-01
RMM:   7    -0.115855804866E+04    0.21217E-03   -0.46555E-03  1745   0.104E-01    0.362E-01
RMM:   8    -0.115855722755E+04    0.82111E-03   -0.17703E-03  1596   0.647E-02    0.211E-01
RMM:   9    -0.115855729279E+04   -0.65236E-04   -0.20209E-03  1573   0.503E-02    0.983E-02
RMM:  10    -0.115855723287E+04    0.59919E-04   -0.27008E-04  1668   0.290E-02    0.643E-02
RMM:  11    -0.115855722084E+04    0.12027E-04   -0.19768E-04  1562   0.170E-02    0.325E-02
RMM:  12    -0.115855722420E+04   -0.33639E-05   -0.49605E-05  1638   0.100E-02    0.215E-02
RMM:  13    -0.115855722796E+04   -0.37575E-05   -0.27105E-05  1568   0.709E-03    0.143E-02
RMM:  14    -0.115855722916E+04   -0.11978E-05   -0.70086E-06  1398   0.445E-03    0.106E-02
RMM:  15    -0.115855723156E+04   -0.24034E-05   -0.34650E-06  1169   0.264E-03    0.914E-03
RMM:  16    -0.115855723436E+04   -0.27945E-05   -0.23056E-06  1085   0.243E-03    0.793E-03
RMM:  17    -0.115855723629E+04   -0.19315E-05   -0.97949E-07  1050   0.155E-03    0.758E-03
RMM:  18    -0.115855723961E+04   -0.33255E-05   -0.13993E-06  1059   0.158E-03    0.748E-03
RMM:  19    -0.115855724060E+04   -0.98525E-06   -0.36021E-07   982   0.102E-03
   2 F= -.11585572E+04 E0= -.11585572E+04  d E =0.142438E+00  mag=     1.0000
       N       E                     dE             d eps       ncg     rms          rms(c)
DAV:   1    -0.115864993827E+04   -0.92699E-01   -0.15024E+01  1664   0.889E+00    0.120E+00
RMM:   2    -0.115873485188E+04   -0.84914E-01   -0.91593E-01  1562   0.157E+00    0.108E+00
RMM:   3    -0.115874364861E+04   -0.87967E-02   -0.13369E-01  1706   0.543E-01    0.915E-01
RMM:   4    -0.115874148828E+04    0.21603E-02   -0.18394E-02  1800   0.203E-01    0.855E-01
RMM:   5    -0.115873576482E+04    0.57235E-02   -0.94649E-03  1564   0.132E-01    0.587E-01
RMM:   6    -0.115873383665E+04    0.19282E-02   -0.20587E-02  1612   0.174E-01    0.310E-01
RMM:   7    -0.115873382965E+04    0.70082E-05   -0.19991E-03  1687   0.720E-02    0.268E-01
RMM:   8    -0.115873376646E+04    0.63189E-04   -0.42412E-04  1679   0.316E-02    0.189E-01
RMM:   9    -0.115873370109E+04    0.65369E-04   -0.62010E-04  1573   0.291E-02    0.101E-01
RMM:  10    -0.115873369447E+04    0.66205E-05   -0.11462E-04  1715   0.160E-02    0.645E-02
RMM:  11    -0.115873368306E+04    0.11406E-04   -0.65161E-05  1569   0.103E-02    0.394E-02
RMM:  12    -0.115873368739E+04   -0.43276E-05   -0.20880E-05  1577   0.641E-03    0.225E-02
RMM:  13    -0.115873368767E+04   -0.27905E-06   -0.14058E-05  1540   0.553E-03    0.170E-02
RMM:  14    -0.115873368855E+04   -0.87922E-06   -0.53570E-06  1323   0.347E-03
   3 F= -.11587337E+04 E0= -.11587337E+04  d E =-.340095E-01  mag=     1.0000
       N       E                     dE             d eps       ncg     rms          rms(c)
DAV:   1    -0.115872160853E+04    0.12079E-01   -0.36735E+00  1632   0.402E+00    0.529E-01
RMM:   2    -0.115873536717E+04   -0.13759E-01   -0.15070E-01  1557   0.690E-01    0.518E-01
RMM:   3    -0.115873671062E+04   -0.13435E-02   -0.21555E-02  1700   0.243E-01    0.447E-01
RMM:   4    -0.115873620286E+04    0.50776E-03   -0.36194E-03  1758   0.966E-02    0.406E-01
RMM:   5    -0.115873505012E+04    0.11527E-02   -0.43265E-03  1580   0.791E-02    0.247E-01
RMM:   6    -0.115873512236E+04   -0.72240E-04   -0.30332E-03  1593   0.686E-02    0.167E-01
RMM:   7    -0.115873506593E+04    0.56430E-04   -0.36039E-04  1819   0.319E-02    0.148E-01
RMM:   8    -0.115873485017E+04    0.21576E-03   -0.76711E-04  1622   0.310E-02    0.817E-02
RMM:   9    -0.115873488925E+04   -0.39075E-04   -0.15922E-04  1659   0.190E-02    0.472E-02
RMM:  10    -0.115873489168E+04   -0.24264E-05   -0.63805E-05  1730   0.106E-02    0.356E-02
RMM:  11    -0.115873488945E+04    0.22206E-05   -0.10977E-05  1500   0.534E-03    0.229E-02
RMM:  12    -0.115873488778E+04    0.16736E-05   -0.92005E-06  1489   0.442E-03    0.128E-02
RMM:  13    -0.115873488791E+04   -0.12894E-06   -0.35963E-06  1187   0.271E-03
   4 F= -.11587349E+04 E0= -.11587349E+04  d E =-.119936E-02  mag=     1.0000
       N       E                     dE             d eps       ncg     rms          rms(c)
DAV:   1    -0.115873841327E+04   -0.35255E-02   -0.84070E-01  1632   0.192E+00    0.256E-01
RMM:   2    -0.115874153356E+04   -0.31203E-02   -0.34394E-02  1559   0.329E-01    0.247E-01
RMM:   3    -0.115874184158E+04   -0.30802E-03   -0.49793E-03  1700   0.116E-01    0.209E-01
RMM:   4    -0.115874173220E+04    0.10938E-03   -0.78816E-04  1762   0.451E-02    0.191E-01
RMM:   5    -0.115874149184E+04    0.24036E-03   -0.94887E-04  1582   0.371E-02    0.115E-01
RMM:   6    -0.115874151748E+04   -0.25639E-04   -0.65935E-04  1598   0.321E-02    0.776E-02
RMM:   7    -0.115874150652E+04    0.10959E-04   -0.75206E-05  1791   0.147E-02    0.681E-02
RMM:   8    -0.115874146917E+04    0.37349E-04   -0.19150E-04  1628   0.149E-02    0.349E-02
RMM:   9    -0.115874147673E+04   -0.75579E-05   -0.26587E-05  1591   0.853E-03    0.219E-02
RMM:  10    -0.115874147688E+04   -0.15563E-06   -0.12549E-05  1541   0.481E-03    0.163E-02
RMM:  11    -0.115874147699E+04   -0.10785E-06   -0.29563E-06  1147   0.299E-03
   5 F= -.11587415E+04 E0= -.11587415E+04  d E =-.778844E-02  mag=     1.0000
       N       E                     dE             d eps       ncg     rms          rms(c)
DAV:   1    -0.115874151492E+04   -0.38036E-04   -0.11516E+00  1568   0.212E+00    0.264E-01
RMM:   2    -0.115874413247E+04   -0.26176E-02   -0.31020E-02  1559   0.325E-01    0.248E-01
RMM:   3    -0.115874438594E+04   -0.25347E-03   -0.52774E-03  1713   0.121E-01    0.217E-01
RMM:   4    -0.115874414396E+04    0.24198E-03   -0.86094E-04  1730   0.484E-02    0.189E-01
RMM:   5    -0.115874375402E+04    0.38994E-03   -0.17457E-03  1566   0.497E-02    0.911E-02
RMM:   6    -0.115874377285E+04   -0.18823E-04   -0.59655E-04  1601   0.332E-02    0.644E-02
RMM:   7    -0.115874372844E+04    0.44404E-04   -0.65061E-05  1645   0.150E-02    0.505E-02
RMM:   8    -0.115874370523E+04    0.23213E-04   -0.17316E-04  1566   0.133E-02    0.236E-02
RMM:   9    -0.115874370525E+04   -0.16124E-07   -0.18589E-05  1561   0.729E-03    0.175E-02
RMM:  10    -0.115874370301E+04    0.22398E-05   -0.33045E-05  1558   0.755E-03    0.891E-03
RMM:  11    -0.115874370279E+04    0.22096E-06   -0.61434E-06  1406   0.383E-03
   6 F= -.11587437E+04 E0= -.11587437E+04  d E =-.222579E-02  mag=     1.0000
       N       E                     dE             d eps       ncg     rms          rms(c)
DAV:   1    -0.115874427685E+04   -0.57385E-03   -0.13685E-01  1664   0.732E-01    0.908E-02
RMM:   2    -0.115874458733E+04   -0.31047E-03   -0.37075E-03  1557   0.112E-01    0.848E-02
RMM:   3    -0.115874461683E+04   -0.29505E-04   -0.62437E-04  1711   0.419E-02    0.741E-02
RMM:   4    -0.115874458926E+04    0.27567E-04   -0.10758E-04  1714   0.169E-02    0.640E-02
RMM:   5    -0.115874454628E+04    0.42986E-04   -0.18257E-04  1559   0.163E-02    0.318E-02
RMM:   6    -0.115874454991E+04   -0.36320E-05   -0.79141E-05  1585   0.118E-02    0.214E-02
RMM:   7    -0.115874454429E+04    0.56153E-05   -0.80634E-06  1533   0.545E-03    0.164E-02
RMM:   8    -0.115874454306E+04    0.12371E-05   -0.18649E-05  1507   0.453E-03    0.808E-03
RMM:   9    -0.115874454321E+04   -0.14951E-06   -0.21327E-06  1071   0.252E-03
   7 F= -.11587445E+04 E0= -.11587445E+04  d E =-.306622E-02  mag=     1.0000
       N       E                     dE             d eps       ncg     rms          rms(c)
DAV:   1    -0.115874320272E+04    0.13403E-02   -0.62275E-01  1664   0.189E+00    0.220E-01
RMM:   2    -0.115874614719E+04   -0.29445E-02   -0.32603E-02  1572   0.294E-01    0.176E-01
RMM:   3    -0.115874639006E+04   -0.24288E-03   -0.46083E-03  1693   0.104E-01    0.151E-01
RMM:   4    -0.115874628683E+04    0.10323E-03   -0.62833E-04  1732   0.399E-02    0.128E-01
RMM:   5    -0.115874610164E+04    0.18519E-03   -0.84914E-04  1553   0.373E-02    0.575E-02
RMM:   6    -0.115874611730E+04   -0.15663E-04   -0.25202E-04  1645   0.226E-02    0.403E-02
RMM:   7    -0.115874610879E+04    0.85099E-05   -0.33185E-05  1611   0.101E-02    0.273E-02
RMM:   8    -0.115874610871E+04    0.80814E-07   -0.32699E-05  1546   0.714E-03    0.144E-02
RMM:   9    -0.115874610695E+04    0.17633E-05   -0.14642E-05  1602   0.505E-03    0.915E-03
RMM:  10    -0.115874610658E+04    0.36981E-06   -0.44437E-06  1373   0.315E-03
   8 F= -.11587461E+04 E0= -.11587461E+04  d E =-.156337E-02  mag=     1.0000
       N       E                     dE             d eps       ncg     rms          rms(c)
DAV:   1    -0.115874610026E+04    0.66861E-05   -0.32826E-02  1728   0.436E-01    0.505E-02
RMM:   2    -0.115874625369E+04   -0.15343E-03   -0.17247E-03  1570   0.678E-02    0.404E-02
RMM:   3    -0.115874626643E+04   -0.12734E-04   -0.24434E-04  1696   0.242E-02    0.347E-02
RMM:   4    -0.115874626157E+04    0.48611E-05   -0.33505E-05  1700   0.929E-03    0.294E-02
RMM:   5    -0.115874625253E+04    0.90342E-05   -0.47848E-05  1550   0.888E-03    0.130E-02
RMM:   6    -0.115874625382E+04   -0.12831E-05   -0.13586E-05  1586   0.533E-03    0.924E-03
RMM:   7    -0.115874625367E+04    0.14373E-06   -0.18951E-06  1031   0.273E-03
   9 F= -.11587463E+04 E0= -.11587463E+04  d E =-.171047E-02  mag=     1.0000
       N       E                     dE             d eps       ncg     rms          rms(c)
DAV:   1    -0.115874590111E+04    0.35271E-03   -0.41984E-01  1600   0.145E+00    0.157E-01
RMM:   2    -0.115874733887E+04   -0.14378E-02   -0.15829E-02  1569   0.204E-01    0.122E-01
RMM:   3    -0.115874748269E+04   -0.14382E-03   -0.24042E-03  1649   0.737E-02    0.106E-01
RMM:   4    -0.115874744534E+04    0.37356E-04   -0.36730E-04  1730   0.300E-02    0.838E-02
RMM:   5    -0.115874740859E+04    0.36743E-04   -0.37844E-04  1560   0.254E-02    0.347E-02
RMM:   6    -0.115874741740E+04   -0.88077E-05   -0.71243E-05  1752   0.131E-02    0.241E-02
RMM:   7    -0.115874741545E+04    0.19536E-05   -0.15839E-05  1576   0.591E-03    0.150E-02
RMM:   8    -0.115874741470E+04    0.74860E-06   -0.93003E-06  1471   0.397E-03
  10 F= -.11587474E+04 E0= -.11587474E+04  d E =-.116103E-02  mag=     1.0000
       N       E                     dE             d eps       ncg     rms          rms(c)
DAV:   1    -0.115874741103E+04    0.44156E-05   -0.54199E-03  1728   0.165E-01    0.179E-02
RMM:   2    -0.115874742912E+04   -0.18088E-04   -0.20360E-04  1570   0.232E-02    0.141E-02
RMM:   3    -0.115874743081E+04   -0.16849E-05   -0.32176E-05  1660   0.864E-03    0.123E-02
RMM:   4    -0.115874743023E+04    0.57705E-06   -0.45469E-06  1197   0.356E-03
  11 F= -.11587474E+04 E0= -.11587474E+04  d E =-.117656E-02  mag=     1.0000
