       N       E                     dE             d eps       ncg     rms          rms(c)
DAV:   1     0.448295154026E+04    0.44830E+04   -0.17298E+05  1944   0.899E+02
DAV:   2    -0.133879632031E+03   -0.46168E+04   -0.41797E+04  2520   0.201E+02
DAV:   3    -0.118616448137E+04   -0.10523E+04   -0.10462E+04  2196   0.103E+02
DAV:   4    -0.122862598098E+04   -0.42461E+02   -0.42231E+02  2052   0.268E+01
DAV:   5    -0.122991767870E+04   -0.12917E+01   -0.12885E+01  2556   0.411E+00    0.703E+01
RMM:   6    -0.121639208629E+04    0.13526E+02   -0.74523E+00  1588   0.301E+00    0.589E+01
RMM:   7    -0.117189448451E+04    0.44498E+02   -0.66601E+01  1594   0.904E+00    0.354E+01
RMM:   8    -0.116175985444E+04    0.10135E+02   -0.25475E+01  1606   0.559E+00    0.227E+01
RMM:   9    -0.116355623046E+04   -0.17964E+01   -0.16972E+01  1590   0.464E+00    0.985E+00
RMM:  10    -0.116388755138E+04   -0.33132E+00   -0.11773E+00  1626   0.129E+00    0.713E+00
RMM:  11    -0.116332368841E+04    0.56386E+00   -0.45723E+00  1586   0.214E+00    0.327E+00
RMM:  12    -0.116319750355E+04    0.12618E+00   -0.23668E-01  1584   0.511E-01    0.207E+00
RMM:  13    -0.116320820497E+04   -0.10701E-01   -0.81634E-02  1706   0.187E-01    0.148E+00
RMM:  14    -0.116328725968E+04   -0.79055E-01   -0.16338E-01  1586   0.372E-01    0.101E+00
RMM:  15    -0.116335731914E+04   -0.70059E-01   -0.12139E-01  1620   0.143E-01    0.115E+00
RMM:  16    -0.116331817243E+04    0.39147E-01   -0.55585E-02  1486   0.102E-01    0.803E-01
RMM:  17    -0.116332775900E+04   -0.95866E-02   -0.21626E-02  1596   0.112E-01    0.847E-01
RMM:  18    -0.116316761837E+04    0.16014E+00   -0.17518E-01  1519   0.179E-01    0.463E-01
RMM:  19    -0.116319172563E+04   -0.24107E-01   -0.56789E-03  1332   0.341E-02    0.527E-01
RMM:  20    -0.116314817920E+04    0.43546E-01   -0.19368E-02  1471   0.700E-02    0.447E-01
RMM:  21    -0.116302713346E+04    0.12105E+00   -0.51583E-02  1342   0.110E-01    0.483E-01
RMM:  22    -0.116303900144E+04   -0.11868E-01   -0.17384E-03  1130   0.167E-02    0.506E-01
RMM:  23    -0.116303612950E+04    0.28719E-02   -0.13383E-04  1080   0.939E-03    0.500E-01
RMM:  24    -0.116305808356E+04   -0.21954E-01   -0.10437E-03  1321   0.269E-02    0.643E-01
RMM:  25    -0.116314310166E+04   -0.85018E-01   -0.18333E-02  1300   0.689E-02    0.364E-01
RMM:  26    -0.116339999830E+04   -0.25690E+00   -0.10157E+00  1611   0.201E-01    0.535E-01
RMM:  27    -0.116384116806E+04   -0.44117E+00   -0.10174E+00  1375   0.982E-02    0.151E+01
RMM:  28    -0.116335614339E+04    0.48502E+00   -0.20635E-01  1240   0.118E-01    0.512E-01
RMM:  29    -0.116393149284E+04   -0.57535E+00   -0.18057E+00  1520   0.218E-01    0.169E+01
RMM:  30    -0.116364014061E+04    0.29135E+00   -0.20710E-01  1226   0.109E-01    0.129E+01
RMM:  31    -0.116357593872E+04    0.64202E-01   -0.17368E-02  1095   0.309E-02    0.104E+01
RMM:  32    -0.116397376220E+04   -0.39782E+00   -0.47074E-01  1418   0.127E-01    0.162E+01
RMM:  33    -0.116359357510E+04    0.38019E+00   -0.30049E-01  1187   0.121E-01    0.109E+01
RMM:  34    -0.116364406036E+04   -0.50485E-01   -0.19349E-02  1113   0.474E-02    0.132E+01
RMM:  35    -0.116353024900E+04    0.11381E+00   -0.11618E-01  1043   0.726E-02    0.744E+00
RMM:  36    -0.116356103723E+04   -0.30788E-01   -0.10108E-01  1296   0.111E-01    0.951E+00
RMM:  37    -0.116361191692E+04   -0.50880E-01   -0.10205E-01  1117   0.821E-02    0.120E+01
RMM:  38    -0.116354194257E+04    0.69974E-01   -0.39137E-02  1098   0.539E-02    0.825E+00
RMM:  39    -0.116355284407E+04   -0.10902E-01   -0.12820E-02  1045   0.408E-02    0.895E+00
RMM:  40    -0.116356081073E+04   -0.79667E-02   -0.76781E-04   721   0.905E-03    0.947E+00
RMM:  41    -0.116354650471E+04    0.14306E-01   -0.30407E-03   867   0.164E-02    0.854E+00
RMM:  42    -0.116354497108E+04    0.15336E-02   -0.88184E-03  1104   0.351E-02    0.837E+00
RMM:  43    -0.116353600927E+04    0.89618E-02   -0.46165E-02  1181   0.722E-02    0.761E+00
RMM:  44    -0.116354005255E+04   -0.40433E-02   -0.39095E-02  1136   0.695E-02    0.806E+00
RMM:  45    -0.116352804882E+04    0.12004E-01   -0.10351E-02   895   0.372E-02    0.732E+00
RMM:  46    -0.116353063790E+04   -0.25891E-02   -0.13135E-02   991   0.414E-02    0.743E+00
RMM:  47    -0.116352327625E+04    0.73617E-02   -0.63122E-03   756   0.277E-02    0.693E+00
RMM:  48    -0.116357686801E+04   -0.53592E-01   -0.98954E-02  1197   0.942E-02    0.994E+00
RMM:  49    -0.116359097032E+04   -0.14102E-01   -0.30416E-02  1081   0.464E-02    0.110E+01
RMM:  50    -0.116360167896E+04   -0.10709E-01   -0.90779E-03   956   0.274E-02    0.116E+01
RMM:  51    -0.116354244325E+04    0.59236E-01   -0.43252E-02  1132   0.595E-02    0.823E+00
RMM:  52    -0.116357155143E+04   -0.29108E-01   -0.29970E-02  1070   0.516E-02    0.993E+00
RMM:  53    -0.116356555822E+04    0.59932E-02   -0.36415E-03   780   0.196E-02    0.966E+00
RMM:  54    -0.116356968596E+04   -0.41277E-02   -0.85006E-03   929   0.267E-02    0.100E+01
RMM:  55    -0.116358015251E+04   -0.10467E-01   -0.17167E-02  1005   0.386E-02    0.104E+01
RMM:  56    -0.116343011549E+04    0.15004E+00   -0.14559E-01  1499   0.122E-01    0.253E+00
RMM:  57    -0.116332134358E+04    0.10877E+00   -0.87402E-02  1496   0.113E-01    0.658E-01
RMM:  58    -0.116322231903E+04    0.99025E-01   -0.68624E-02  1431   0.885E-02    0.394E-01
RMM:  59    -0.116317859158E+04    0.43727E-01   -0.24034E-02  1252   0.423E-02    0.315E-01
RMM:  60    -0.116316045917E+04    0.18132E-01   -0.48465E-03  1168   0.231E-02    0.281E-01
RMM:  61    -0.116317004940E+04   -0.95902E-02   -0.87021E-04  1021   0.130E-02    0.311E-01
RMM:  62    -0.116315716137E+04    0.12888E-01   -0.14937E-03   951   0.124E-02    0.299E-01
RMM:  63    -0.116315526952E+04    0.18918E-02   -0.23050E-04   768   0.531E-03    0.297E-01
RMM:  64    -0.116315124580E+04    0.40237E-02   -0.21028E-04   724   0.675E-03    0.332E-01
RMM:  65    -0.116314392042E+04    0.73254E-02   -0.22404E-04   675   0.654E-03    0.338E-01
RMM:  66    -0.116309918563E+04    0.44735E-01   -0.56242E-03  1192   0.325E-02    0.311E-01
RMM:  67    -0.116311058694E+04   -0.11401E-01   -0.30833E-04  1028   0.910E-03    0.285E-01
RMM:  68    -0.116311658300E+04   -0.59961E-02   -0.23750E-04   682   0.691E-03    0.286E-01
RMM:  69    -0.116312391311E+04   -0.73301E-02   -0.73313E-04  1003   0.133E-02    0.266E-01
RMM:  70    -0.116311216147E+04    0.11752E-01   -0.10721E-03   947   0.138E-02    0.273E-01
RMM:  71    -0.116315660309E+04   -0.44442E-01   -0.16116E-02  1129   0.450E-02    0.243E-01
RMM:  72    -0.116315345763E+04    0.31455E-02   -0.27092E-03   966   0.155E-02    0.254E-01
RMM:  73    -0.116315338782E+04    0.69804E-04   -0.29324E-04   700   0.537E-03
   1 F= -.11702607E+04 E0= -.11702607E+04  d E =-.117026E+04  mag=     2.0252
       N       E                     dE             d eps       ncg     rms          rms(c)
DAV:   1    -0.116318528117E+04   -0.31824E-01   -0.33285E+00  1584   0.273E+00    0.167E+00
RMM:   2    -0.116326416145E+04   -0.78880E-01   -0.12921E-01  1612   0.429E-01    0.147E+00
RMM:   3    -0.116334401127E+04   -0.79850E-01   -0.81684E-02  1651   0.138E-01    0.134E+00
RMM:   4    -0.116339172332E+04   -0.47712E-01   -0.10497E-01  1522   0.765E-02    0.193E+00
RMM:   5    -0.116334966421E+04    0.42059E-01   -0.36536E-02  1544   0.748E-02    0.110E+00
RMM:   6    -0.116330112765E+04    0.48537E-01   -0.18048E-01  1602   0.218E-01    0.686E-01
RMM:   7    -0.116332826908E+04   -0.27141E-01   -0.23727E-02  1578   0.774E-02    0.925E-01
RMM:   8    -0.116334830053E+04   -0.20031E-01   -0.62314E-03  1518   0.525E-02    0.869E-01
RMM:   9    -0.116332618008E+04    0.22120E-01   -0.17980E-02  1321   0.489E-02    0.493E-01
RMM:  10    -0.116330386009E+04    0.22320E-01   -0.20678E-02  1218   0.472E-02    0.323E-01
RMM:  11    -0.116328853647E+04    0.15324E-01   -0.13409E-02  1155   0.355E-02    0.287E-01
RMM:  12    -0.116325548402E+04    0.33052E-01   -0.30108E-02  1214   0.565E-02    0.329E-01
RMM:  13    -0.116325442980E+04    0.10542E-02   -0.29803E-03  1107   0.136E-02    0.285E-01
RMM:  14    -0.116325656979E+04   -0.21400E-02   -0.16058E-04   885   0.649E-03    0.280E-01
RMM:  15    -0.116325858050E+04   -0.20107E-02   -0.73451E-05   633   0.515E-03    0.275E-01
RMM:  16    -0.116327096073E+04   -0.12380E-01   -0.20681E-03   936   0.162E-02    0.260E-01
RMM:  17    -0.116330634138E+04   -0.35381E-01   -0.21320E-02  1162   0.435E-02    0.405E-01
RMM:  18    -0.116335566582E+04   -0.49324E-01   -0.81338E-02  1224   0.694E-02    0.108E+00
RMM:  19    -0.116334137111E+04    0.14295E-01   -0.58587E-03  1100   0.257E-02    0.118E+00
RMM:  20    -0.116333100538E+04    0.10366E-01   -0.33738E-03  1037   0.217E-02    0.108E+00
RMM:  21    -0.116333062096E+04    0.38442E-03   -0.14400E-04   718   0.495E-03    0.109E+00
RMM:  22    -0.116332427336E+04    0.63476E-02   -0.12690E-03   712   0.121E-02    0.978E-01
RMM:  23    -0.116334504584E+04   -0.20772E-01   -0.59781E-03  1200   0.324E-02    0.151E+00
RMM:  24    -0.116333273920E+04    0.12307E-01   -0.50094E-03  1147   0.286E-02    0.135E+00
RMM:  25    -0.116331143366E+04    0.21306E-01   -0.25001E-02  1185   0.496E-02    0.930E-01
RMM:  26    -0.116324151337E+04    0.69920E-01   -0.10199E-01  1358   0.115E-01    0.518E-01
RMM:  27    -0.116325618989E+04   -0.14677E-01   -0.45527E-03  1103   0.208E-02    0.723E-01
RMM:  28    -0.116326397114E+04   -0.77812E-02   -0.12477E-03   956   0.133E-02    0.686E-01
RMM:  29    -0.116328096044E+04   -0.16989E-01   -0.36048E-03  1093   0.251E-02    0.620E-01
RMM:  30    -0.116328004956E+04    0.91087E-03   -0.12692E-04   872   0.752E-03    0.561E-01
RMM:  31    -0.116326765132E+04    0.12398E-01   -0.41725E-03  1063   0.253E-02    0.388E-01
RMM:  32    -0.116326954777E+04   -0.18965E-02   -0.31206E-04  1032   0.999E-03    0.331E-01
RMM:  33    -0.116326714835E+04    0.23994E-02   -0.20833E-04   875   0.768E-03    0.323E-01
RMM:  34    -0.116326724562E+04   -0.97271E-04   -0.21747E-05   636   0.376E-03
   2 F= -.11703747E+04 E0= -.11703747E+04  d E =-.113961E+00  mag=     2.0000
       N       E                     dE             d eps       ncg     rms          rms(c)
DAV:   1    -0.116318121271E+04    0.85936E-01   -0.13571E+00  1692   0.174E+00    0.110E+00
RMM:   2    -0.116325761576E+04   -0.76403E-01   -0.39022E-02  1608   0.257E-01    0.108E+00
RMM:   3    -0.116330064673E+04   -0.43031E-01   -0.11579E-02  1578   0.660E-02    0.108E+00
RMM:   4    -0.116331354145E+04   -0.12895E-01   -0.66961E-03  1210   0.331E-02    0.110E+00
RMM:   5    -0.116334047384E+04   -0.26932E-01   -0.16748E-01  1564   0.172E-01    0.900E-01
RMM:   6    -0.116316451784E+04    0.17596E+00   -0.17391E-01  1600   0.215E-01    0.560E-01
RMM:   7    -0.116331485524E+04   -0.15034E+00   -0.16019E-01  1536   0.134E-01    0.678E-01
RMM:   8    -0.116332082236E+04   -0.59671E-02   -0.71946E-03  1492   0.494E-02    0.107E+00
RMM:   9    -0.116328900932E+04    0.31813E-01   -0.18055E-02  1177   0.520E-02    0.733E-01
RMM:  10    -0.116334867084E+04   -0.59662E-01   -0.19647E-01  1485   0.178E-01    0.917E-01
RMM:  11    -0.116329230976E+04    0.56361E-01   -0.80618E-02  1229   0.945E-02    0.530E-01
RMM:  12    -0.116325646782E+04    0.35842E-01   -0.37714E-02  1237   0.677E-02    0.556E-01
RMM:  13    -0.116324485278E+04    0.11615E-01   -0.60562E-03  1114   0.233E-02    0.667E-01
RMM:  14    -0.116324128445E+04    0.35683E-02   -0.79593E-04   964   0.102E-02    0.677E-01
RMM:  15    -0.116324127803E+04    0.64245E-05   -0.83478E-05   708   0.478E-03
   3 F= -.11703486E+04 E0= -.11703486E+04  d E =-.879002E-01  mag=     2.0000
       N       E                     dE             d eps       ncg     rms          rms(c)
DAV:   1    -0.116307575457E+04    0.16553E+00   -0.12423E+00  1656   0.134E+00    0.118E+00
RMM:   2    -0.116318106994E+04   -0.10532E+00   -0.43580E-02  1605   0.198E-01    0.105E+00
RMM:   3    -0.116330770644E+04   -0.12664E+00   -0.22798E-01  1568   0.193E-01    0.729E-01
RMM:   4    -0.116326839418E+04    0.39312E-01   -0.50932E-02  1464   0.773E-02    0.866E-01
RMM:   5    -0.116325522263E+04    0.13172E-01   -0.42688E-03  1137   0.227E-02    0.100E+00
RMM:   6    -0.116332908663E+04   -0.73864E-01   -0.44240E-02  1375   0.741E-02    0.862E-01
RMM:   7    -0.116335279332E+04   -0.23707E-01   -0.30120E-02  1226   0.454E-02    0.101E+00
RMM:   8    -0.116335669634E+04   -0.39030E-02   -0.14455E-02  1205   0.268E-02    0.111E+00
RMM:   9    -0.116321072355E+04    0.14597E+00   -0.16364E-01  1415   0.145E-01    0.596E-01
RMM:  10    -0.116308185873E+04    0.12886E+00   -0.13388E-01  1464   0.145E-01    0.639E-01
RMM:  11    -0.116293621955E+04    0.14564E+00   -0.49150E-02  1420   0.989E-02    0.384E-01
RMM:  12    -0.116289663747E+04    0.39582E-01   -0.13464E-02  1242   0.497E-02    0.423E-01
RMM:  13    -0.116287527266E+04    0.21365E-01   -0.38791E-03  1107   0.269E-02    0.439E-01
RMM:  14    -0.116308660830E+04   -0.21134E+00   -0.54492E-02  1326   0.104E-01    0.337E-01
RMM:  15    -0.116330818189E+04   -0.22157E+00   -0.30728E-01  1496   0.159E-01    0.558E-01
RMM:  16    -0.116337163475E+04   -0.63453E-01   -0.18734E-01  1398   0.902E-02    0.366E-01
RMM:  17    -0.116339979340E+04   -0.28159E-01   -0.72365E-02  1246   0.553E-02    0.102E+00
RMM:  18    -0.116336856355E+04    0.31230E-01   -0.25495E-02  1181   0.550E-02    0.668E-01
RMM:  19    -0.116333362014E+04    0.34943E-01   -0.55526E-02  1252   0.742E-02    0.253E-01
RMM:  20    -0.116317248309E+04    0.16114E+00   -0.22847E-01  1469   0.188E-01    0.892E-01
RMM:  21    -0.116318030269E+04   -0.78196E-02   -0.11073E-02  1275   0.309E-02    0.286E-01
RMM:  22    -0.116320315230E+04   -0.22850E-01   -0.11399E-03  1049   0.168E-02    0.277E-01
RMM:  23    -0.116319505190E+04    0.81004E-02   -0.25811E-03   965   0.198E-02    0.268E-01
RMM:  24    -0.116316385565E+04    0.31196E-01   -0.67554E-03  1129   0.368E-02    0.287E-01
RMM:  25    -0.116309244898E+04    0.71407E-01   -0.18691E-02  1248   0.653E-02    0.342E-01
RMM:  26    -0.116309130248E+04    0.11465E-02   -0.99656E-04  1012   0.127E-02    0.354E-01
RMM:  27    -0.116309178051E+04   -0.47803E-03   -0.50117E-05   738   0.480E-03    0.351E-01
RMM:  28    -0.116309805693E+04   -0.62764E-02   -0.82847E-05   644   0.590E-03    0.348E-01
RMM:  29    -0.116311289954E+04   -0.14843E-01   -0.54196E-04   747   0.120E-02    0.338E-01
RMM:  30    -0.116312409871E+04   -0.11199E-01   -0.53753E-04   769   0.125E-02    0.329E-01
RMM:  31    -0.116311229711E+04    0.11802E-01   -0.35592E-04   665   0.107E-02    0.336E-01
RMM:  32    -0.116312989083E+04   -0.17594E-01   -0.74079E-04   760   0.137E-02    0.325E-01
RMM:  33    -0.116317252603E+04   -0.42635E-01   -0.52469E-03  1089   0.340E-02    0.294E-01
RMM:  34    -0.116320278047E+04   -0.30254E-01   -0.40915E-03  1068   0.281E-02    0.269E-01
RMM:  35    -0.116321443389E+04   -0.11653E-01   -0.13447E-03   876   0.151E-02    0.259E-01
RMM:  36    -0.116321424011E+04    0.19378E-03   -0.15795E-04   624   0.479E-03    0.255E-01
RMM:  37    -0.116321528463E+04   -0.10445E-02   -0.16168E-05   516   0.350E-03    0.255E-01
RMM:  38    -0.116321985938E+04   -0.45748E-02   -0.12481E-04   665   0.659E-03    0.252E-01
RMM:  39    -0.116320789200E+04    0.11967E-01   -0.71679E-04   682   0.127E-02    0.258E-01
RMM:  40    -0.116320319106E+04    0.47009E-02   -0.23266E-04   611   0.795E-03    0.263E-01
RMM:  41    -0.116319983792E+04    0.33531E-02   -0.89210E-05   593   0.529E-03    0.267E-01
RMM:  42    -0.116320399004E+04   -0.41521E-02   -0.60404E-05   498   0.471E-03    0.265E-01
RMM:  43    -0.116320434364E+04   -0.35360E-03   -0.29414E-06   319   0.237E-03    0.264E-01
RMM:  44    -0.116320303462E+04    0.13090E-02   -0.99347E-06   355   0.261E-03    0.264E-01
RMM:  45    -0.116319872318E+04    0.43114E-02   -0.75321E-05   483   0.495E-03    0.267E-01
RMM:  46    -0.116319749996E+04    0.12232E-02   -0.24578E-05   452   0.363E-03    0.267E-01
RMM:  47    -0.116320306789E+04   -0.55679E-02   -0.98273E-05   490   0.543E-03    0.267E-01
RMM:  48    -0.116320199025E+04    0.10776E-02   -0.20680E-06   323   0.231E-03    0.267E-01
RMM:  49    -0.116321673711E+04   -0.14747E-01   -0.11040E-03   727   0.149E-02    0.260E-01
RMM:  50    -0.116323612386E+04   -0.19387E-01   -0.29873E-03  1011   0.242E-02    0.250E-01
RMM:  51    -0.116326349617E+04   -0.27372E-01   -0.68043E-03  1101   0.335E-02    0.239E-01
RMM:  52    -0.116326829067E+04   -0.47945E-02   -0.10775E-03   874   0.120E-02    0.233E-01
RMM:  53    -0.116326815710E+04    0.13357E-03   -0.10649E-04   614   0.447E-03    0.232E-01
RMM:  54    -0.116326822867E+04   -0.71571E-04   -0.52528E-06   474   0.286E-03
   4 F= -.11703765E+04 E0= -.11703765E+04  d E =-.278990E-01  mag=     2.0000
       N       E                     dE             d eps       ncg     rms          rms(c)
DAV:   1    -0.116326889236E+04   -0.73526E-03   -0.19640E-04  1476   0.122E-02    0.236E-01
RMM:   2    -0.116329494240E+04   -0.26050E-01   -0.68636E-03  1047   0.323E-02    0.256E-01
RMM:   3    -0.116329928041E+04   -0.43380E-02   -0.12624E-03   862   0.130E-02    0.278E-01
RMM:   4    -0.116331734514E+04   -0.18065E-01   -0.64189E-03  1070   0.286E-02    0.399E-01
RMM:   5    -0.116331915953E+04   -0.18144E-02   -0.11591E-03   805   0.102E-02    0.419E-01
RMM:   6    -0.116329164441E+04    0.27515E-01   -0.19439E-02  1025   0.538E-02    0.180E-01
RMM:   7    -0.116330681212E+04   -0.15168E-01   -0.19388E-03   954   0.192E-02    0.341E-01
RMM:   8    -0.116326737944E+04    0.39433E-01   -0.33705E-02  1187   0.764E-02    0.216E-01
RMM:   9    -0.116327239852E+04   -0.50191E-02   -0.21619E-03   957   0.167E-02    0.322E-01
RMM:  10    -0.116327040270E+04    0.19958E-02   -0.19701E-04   726   0.670E-03    0.312E-01
RMM:  11    -0.116327472107E+04   -0.43184E-02   -0.71655E-04   687   0.129E-02    0.299E-01
RMM:  12    -0.116325415275E+04    0.20568E-01   -0.71041E-03  1057   0.373E-02    0.287E-01
RMM:  13    -0.116322787110E+04    0.26282E-01   -0.87709E-03  1144   0.427E-02    0.284E-01
RMM:  14    -0.116318546627E+04    0.42405E-01   -0.16436E-02  1213   0.599E-02    0.330E-01
RMM:  15    -0.116317875914E+04    0.67071E-02   -0.18469E-03   991   0.182E-02    0.357E-01
RMM:  16    -0.116319265218E+04   -0.13893E-01   -0.93232E-04   824   0.161E-02    0.321E-01
RMM:  17    -0.116320202579E+04   -0.93736E-02   -0.57754E-04   757   0.124E-02    0.304E-01
RMM:  18    -0.116323082210E+04   -0.28796E-01   -0.61696E-03  1066   0.362E-02    0.259E-01
RMM:  19    -0.116327930251E+04   -0.48480E-01   -0.26703E-02  1219   0.677E-02    0.176E-01
RMM:  20    -0.116327550078E+04    0.38017E-02   -0.98295E-04   935   0.118E-02    0.233E-01
RMM:  21    -0.116328665379E+04   -0.11153E-01   -0.27309E-03  1022   0.232E-02    0.215E-01
RMM:  22    -0.116328407734E+04    0.25764E-02   -0.15919E-04   711   0.749E-03    0.242E-01
RMM:  23    -0.116328071878E+04    0.33586E-02   -0.26820E-04   699   0.861E-03    0.273E-01
RMM:  24    -0.116328703478E+04   -0.63160E-02   -0.36854E-04   624   0.894E-03    0.319E-01
RMM:  25    -0.116331015112E+04   -0.23116E-01   -0.18339E-02  1124   0.511E-02    0.352E-01
RMM:  26    -0.116331552725E+04   -0.53761E-02   -0.37309E-03   934   0.198E-02    0.414E-01
RMM:  27    -0.116331392012E+04    0.16071E-02   -0.27713E-04   649   0.686E-03    0.415E-01
RMM:  28    -0.116331462100E+04   -0.70087E-03   -0.10413E-04   541   0.449E-03    0.416E-01
RMM:  29    -0.116331693889E+04   -0.23179E-02   -0.36847E-04   644   0.807E-03    0.427E-01
RMM:  30    -0.116331987015E+04   -0.29313E-02   -0.88936E-04   730   0.120E-02    0.441E-01
RMM:  31    -0.116331966460E+04    0.20555E-03   -0.31181E-04   649   0.853E-03    0.445E-01
RMM:  32    -0.116333451528E+04   -0.14851E-01   -0.28894E-02  1029   0.450E-02    0.556E-01
RMM:  33    -0.116333439684E+04    0.11844E-03   -0.19768E-03   713   0.832E-03    0.598E-01
RMM:  34    -0.116333205824E+04    0.23386E-02   -0.89673E-04   632   0.100E-02    0.547E-01
RMM:  35    -0.116332940436E+04    0.26539E-02   -0.38470E-03   679   0.228E-02    0.478E-01
RMM:  36    -0.116332544787E+04    0.39565E-02   -0.22547E-03   654   0.144E-02    0.437E-01
RMM:  37    -0.116332144351E+04    0.40044E-02   -0.22049E-03   716   0.154E-02    0.409E-01
RMM:  38    -0.116331516069E+04    0.62828E-02   -0.36251E-03   921   0.203E-02    0.354E-01
RMM:  39    -0.116331283602E+04    0.23247E-02   -0.11006E-03   688   0.103E-02    0.354E-01
RMM:  40    -0.116331245583E+04    0.38019E-03   -0.20535E-04   503   0.458E-03    0.355E-01
RMM:  41    -0.116331239895E+04    0.56883E-04   -0.15870E-05   422   0.296E-03
   5 F= -.11704207E+04 E0= -.11704207E+04  d E =-.720620E-01  mag=     2.0000
       N       E                     dE             d eps       ncg     rms          rms(c)
DAV:   1    -0.116312203016E+04    0.19043E+00   -0.52650E-01  1620   0.842E-01    0.441E-01
RMM:   2    -0.116322130105E+04   -0.99271E-01   -0.22270E-02  1589   0.134E-01    0.328E-01
RMM:   3    -0.116333426128E+04   -0.11296E+00   -0.97599E-02  1336   0.114E-01    0.548E-01
RMM:   4    -0.116337254444E+04   -0.38283E-01   -0.90619E-02  1196   0.815E-02    0.120E+00
RMM:   5    -0.116341206885E+04   -0.39524E-01   -0.12773E-01  1182   0.105E-01    0.194E+00
RMM:   6    -0.116334333450E+04    0.68734E-01   -0.12438E-01  1327   0.126E-01    0.552E-01
RMM:   7    -0.116334867968E+04   -0.53452E-02   -0.33222E-03  1107   0.197E-02    0.107E+00
RMM:   8    -0.116334483067E+04    0.38490E-02   -0.79127E-04  1046   0.107E-02    0.104E+00
RMM:   9    -0.116334506412E+04   -0.23345E-03   -0.11570E-04   776   0.488E-03    0.107E+00
RMM:  10    -0.116335441348E+04   -0.93494E-02   -0.46361E-03   999   0.213E-02    0.128E+00
RMM:  11    -0.116337635677E+04   -0.21943E-01   -0.24922E-02  1133   0.420E-02    0.171E+00
RMM:  12    -0.116339888080E+04   -0.22524E-01   -0.42627E-02  1120   0.486E-02    0.227E+00
RMM:  13    -0.116339348981E+04    0.53910E-02   -0.94573E-03  1022   0.308E-02    0.202E+00
RMM:  14    -0.116334567251E+04    0.47817E-01   -0.94050E-02  1266   0.109E-01    0.308E-01
RMM:  15    -0.116331396606E+04    0.31706E-01   -0.44504E-02  1256   0.743E-02    0.444E-01
RMM:  16    -0.116331266456E+04    0.13015E-02   -0.56913E-03  1139   0.240E-02    0.494E-01
RMM:  17    -0.116333462288E+04   -0.21958E-01   -0.82479E-03  1057   0.337E-02    0.329E-01
RMM:  18    -0.116335661706E+04   -0.21994E-01   -0.15809E-02  1062   0.353E-02    0.233E-01
RMM:  19    -0.116335890274E+04   -0.22857E-02   -0.27391E-03   884   0.129E-02    0.247E-01
RMM:  20    -0.116336045684E+04   -0.15541E-02   -0.11997E-03   810   0.101E-02    0.256E-01
RMM:  21    -0.116336934081E+04   -0.88840E-02   -0.86789E-03  1076   0.273E-02    0.337E-01
RMM:  22    -0.116336763608E+04    0.17047E-02   -0.21973E-03   871   0.190E-02    0.309E-01
RMM:  23    -0.116335544389E+04    0.12192E-01   -0.13366E-02  1044   0.383E-02    0.218E-01
RMM:  24    -0.116334669385E+04    0.87500E-02   -0.23956E-02  1179   0.539E-02    0.201E-01
RMM:  25    -0.116333195807E+04    0.14736E-01   -0.19328E-02  1130   0.452E-02    0.199E-01
RMM:  26    -0.116331441623E+04    0.17542E-01   -0.15301E-02  1111   0.395E-02    0.206E-01
RMM:  27    -0.116329253870E+04    0.21878E-01   -0.13934E-02  1113   0.385E-02    0.238E-01
RMM:  28    -0.116330189806E+04   -0.93594E-02   -0.14283E-03   842   0.144E-02    0.211E-01
RMM:  29    -0.116330777406E+04   -0.58760E-02   -0.97270E-04   764   0.120E-02    0.214E-01
RMM:  30    -0.116330511616E+04    0.26579E-02   -0.10804E-04   578   0.539E-03    0.215E-01
RMM:  31    -0.116330318012E+04    0.19360E-02   -0.73827E-05   509   0.451E-03    0.219E-01
RMM:  32    -0.116330625572E+04   -0.30756E-02   -0.22800E-04   584   0.681E-03    0.219E-01
RMM:  33    -0.116329740721E+04    0.88485E-02   -0.14540E-03   792   0.146E-02    0.216E-01
RMM:  34    -0.116329629131E+04    0.11159E-02   -0.16418E-04   619   0.544E-03    0.214E-01
RMM:  35    -0.116329444958E+04    0.18417E-02   -0.19319E-04   659   0.685E-03    0.214E-01
RMM:  36    -0.116330240710E+04   -0.79575E-02   -0.11615E-03   689   0.131E-02    0.211E-01
RMM:  37    -0.116331414045E+04   -0.11733E-01   -0.47335E-03  1044   0.256E-02    0.236E-01
RMM:  38    -0.116331637266E+04   -0.22322E-02   -0.78630E-04   798   0.832E-03    0.231E-01
RMM:  39    -0.116332276621E+04   -0.63936E-02   -0.14957E-03   841   0.136E-02    0.227E-01
RMM:  40    -0.116332201077E+04    0.75545E-03   -0.91686E-05   602   0.442E-03    0.223E-01
RMM:  41    -0.116332223961E+04   -0.22884E-03   -0.11158E-05   429   0.291E-03    0.223E-01
RMM:  42    -0.116332466103E+04   -0.24214E-02   -0.12921E-04   647   0.559E-03    0.223E-01
RMM:  43    -0.116334141648E+04   -0.16755E-01   -0.11066E-02  1128   0.340E-02    0.237E-01
RMM:  44    -0.116332497939E+04    0.16437E-01   -0.87348E-03  1015   0.353E-02    0.243E-01
RMM:  45    -0.116332044201E+04    0.45374E-02   -0.19286E-03   881   0.151E-02    0.229E-01
RMM:  46    -0.116329293632E+04    0.27506E-01   -0.18082E-02  1164   0.500E-02    0.281E-01
RMM:  47    -0.116332322242E+04   -0.30286E-01   -0.14727E-02  1109   0.445E-02    0.238E-01
RMM:  48    -0.116334314955E+04   -0.19927E-01   -0.16338E-02  1133   0.402E-02    0.211E-01
RMM:  49    -0.116337372494E+04   -0.30575E-01   -0.63894E-02  1300   0.694E-02    0.286E-01
RMM:  50    -0.116336066599E+04    0.13059E-01   -0.56486E-03  1056   0.295E-02    0.265E-01
RMM:  51    -0.116329194912E+04    0.68717E-01   -0.10088E-01  1409   0.123E-01    0.457E-01
RMM:  52    -0.116327732263E+04    0.14626E-01   -0.16208E-02  1202   0.414E-02    0.211E-01
RMM:  53    -0.116325598656E+04    0.21336E-01   -0.86647E-03  1130   0.338E-02    0.246E-01
RMM:  54    -0.116328511368E+04   -0.29127E-01   -0.64351E-03  1046   0.332E-02    0.220E-01
RMM:  55    -0.116333656370E+04   -0.51450E-01   -0.54016E-02  1269   0.759E-02    0.185E-01
RMM:  56    -0.116341965651E+04   -0.83093E-01   -0.41560E-01  1430   0.133E-01    0.311E-01
RMM:  57    -0.116339294649E+04    0.26710E-01   -0.43791E-02  1156   0.732E-02    0.674E-01
RMM:  58    -0.116338196781E+04    0.10979E-01   -0.84499E-03   959   0.270E-02    0.577E-01
RMM:  59    -0.116337629931E+04    0.56685E-02   -0.34823E-03   813   0.173E-02    0.515E-01
RMM:  60    -0.116338215086E+04   -0.58516E-02   -0.20755E-03   702   0.157E-02    0.634E-01
RMM:  61    -0.116338196057E+04    0.19029E-03   -0.98335E-05   539   0.337E-03    0.632E-01
RMM:  62    -0.116342720186E+04   -0.45241E-01   -0.12435E-01  1154   0.836E-02    0.131E+00
RMM:  63    -0.116342756902E+04   -0.36716E-03   -0.14568E-02   974   0.207E-02    0.164E+00
RMM:  64    -0.116342267747E+04    0.48916E-02   -0.17200E-03   720   0.117E-02    0.154E+00
RMM:  65    -0.116343730812E+04   -0.14631E-01   -0.84466E-03   937   0.227E-02    0.194E+00
RMM:  66    -0.116343442977E+04    0.28783E-02   -0.88815E-04   713   0.958E-03    0.187E+00
RMM:  67    -0.116343916589E+04   -0.47361E-02   -0.27328E-03   657   0.145E-02    0.204E+00
RMM:  68    -0.116346458082E+04   -0.25415E-01   -0.27953E-02   997   0.431E-02    0.282E+00
RMM:  69    -0.116346629827E+04   -0.17175E-02   -0.65826E-03  1045   0.252E-02    0.294E+00
RMM:  70    -0.116343101052E+04    0.35288E-01   -0.30371E-02   954   0.531E-02    0.161E+00
RMM:  71    -0.116344697358E+04   -0.15963E-01   -0.81569E-03   824   0.301E-02    0.225E+00
RMM:  72    -0.116345016402E+04   -0.31904E-02   -0.33228E-03   745   0.210E-02    0.238E+00
RMM:  73    -0.116347620406E+04   -0.26040E-01   -0.25661E-02   831   0.396E-02    0.327E+00
RMM:  74    -0.116346256542E+04    0.13639E-01   -0.58366E-03   936   0.263E-02    0.279E+00
RMM:  75    -0.116347835855E+04   -0.15793E-01   -0.11633E-02   843   0.318E-02    0.339E+00
RMM:  76    -0.116345292363E+04    0.25435E-01   -0.11043E-02   758   0.313E-02    0.240E+00
RMM:  77    -0.116335519971E+04    0.97724E-01   -0.14492E-01  1367   0.121E-01    0.430E-01
RMM:  78    -0.116334443767E+04    0.10762E-01   -0.48765E-02  1214   0.611E-02    0.174E-01
RMM:  79    -0.116340932098E+04   -0.64883E-01   -0.24590E-01  1246   0.115E-01    0.673E-01
RMM:  80    -0.116339381720E+04    0.15504E-01   -0.14678E-02   963   0.453E-02    0.957E-01
RMM:  81    -0.116341035315E+04   -0.16536E-01   -0.15878E-02   993   0.301E-02    0.130E+00
RMM:  82    -0.116342115161E+04   -0.10798E-01   -0.13132E-02   984   0.270E-02    0.154E+00
RMM:  83    -0.116342802035E+04   -0.68687E-02   -0.76292E-03   806   0.159E-02    0.174E+00
RMM:  84    -0.116342639503E+04    0.16253E-02   -0.92275E-04   648   0.690E-03    0.170E+00
RMM:  85    -0.116342640661E+04   -0.11578E-04   -0.82785E-05   487   0.405E-03
   6 F= -.11705358E+04 E0= -.11705358E+04  d E =-.115115E+00  mag=     1.9999
       N       E                     dE             d eps       ncg     rms          rms(c)
DAV:   1    -0.116341796839E+04    0.84266E-02   -0.80936E-03  1404   0.209E-02    0.146E+00
RMM:   2    -0.116398104382E+04   -0.56308E+00   -0.19303E+00  1431   0.190E-01    0.153E+01
RMM:   3    -0.116401559937E+04   -0.34556E-01   -0.41289E-01  1297   0.101E-01    0.137E+01
RMM:   4    -0.116327014047E+04    0.74546E+00   -0.19274E-01  1272   0.131E-01    0.157E+00
RMM:   5    -0.116337958196E+04   -0.10944E+00   -0.89397E-02  1347   0.986E-02    0.338E-01
RMM:   6    -0.116336991746E+04    0.96645E-02   -0.40066E-03  1108   0.277E-02    0.365E-01
RMM:   7    -0.116334727719E+04    0.22640E-01   -0.12421E-02  1073   0.344E-02    0.112E-01
RMM:   8    -0.116333686723E+04    0.10410E-01   -0.59281E-03   969   0.202E-02    0.127E-01
RMM:   9    -0.116334009433E+04   -0.32271E-02   -0.10565E-03   980   0.863E-03    0.101E-01
RMM:  10    -0.116334604696E+04   -0.59526E-02   -0.34394E-04   789   0.790E-03    0.898E-02
RMM:  11    -0.116334397475E+04    0.20722E-02   -0.31711E-04   756   0.760E-03    0.965E-02
RMM:  12    -0.116334280432E+04    0.11704E-02   -0.20550E-04   722   0.606E-03    0.102E-01
RMM:  13    -0.116334058827E+04    0.22161E-02   -0.56882E-04   851   0.916E-03    0.118E-01
RMM:  14    -0.116333382126E+04    0.67670E-02   -0.17491E-03   847   0.134E-02    0.174E-01
RMM:  15    -0.116333342745E+04    0.39382E-03   -0.23718E-04   646   0.478E-03    0.165E-01
RMM:  16    -0.116333514302E+04   -0.17156E-02   -0.10588E-04   540   0.468E-03    0.148E-01
RMM:  17    -0.116333404344E+04    0.10996E-02   -0.45772E-05   540   0.410E-03    0.159E-01
RMM:  18    -0.116333484672E+04   -0.80328E-03   -0.99950E-05   558   0.470E-03    0.149E-01
RMM:  19    -0.116333463162E+04    0.21510E-03   -0.53457E-06   430   0.272E-03    0.153E-01
RMM:  20    -0.116332980289E+04    0.48287E-02   -0.16780E-03  1021   0.153E-02    0.198E-01
RMM:  21    -0.116332599122E+04    0.38117E-02   -0.21946E-03  1006   0.162E-02    0.236E-01
RMM:  22    -0.116332582642E+04    0.16481E-03   -0.17654E-04   669   0.457E-03    0.222E-01
RMM:  23    -0.116332714355E+04   -0.13171E-02   -0.31679E-05   564   0.373E-03    0.208E-01
RMM:  24    -0.116332794009E+04   -0.79654E-03   -0.19303E-04   851   0.789E-03    0.205E-01
RMM:  25    -0.116333016542E+04   -0.22253E-02   -0.45349E-04   682   0.856E-03    0.178E-01
RMM:  26    -0.116332680335E+04    0.33621E-02   -0.52166E-04   673   0.915E-03    0.209E-01
RMM:  27    -0.116332570071E+04    0.11026E-02   -0.28732E-04   746   0.724E-03    0.211E-01
RMM:  28    -0.116332480412E+04    0.89659E-03   -0.54101E-04   973   0.958E-03    0.207E-01
RMM:  29    -0.116332621846E+04   -0.14143E-02   -0.15250E-04   646   0.641E-03    0.176E-01
RMM:  30    -0.116332368745E+04    0.25310E-02   -0.20813E-04   636   0.626E-03    0.188E-01
RMM:  31    -0.116332329587E+04    0.39158E-03   -0.34204E-05   513   0.346E-03    0.184E-01
RMM:  32    -0.116332333010E+04   -0.34234E-04   -0.10768E-05   460   0.315E-03
   7 F= -.11704327E+04 E0= -.11704327E+04  d E =-.120297E-01  mag=     2.0226
