       N       E                     dE             d eps       ncg     rms          rms(c)
DAV:   1     0.492421268763E+04    0.49242E+04   -0.17559E+05  1872   0.919E+02
DAV:   2    -0.546636612532E+02   -0.49789E+04   -0.45584E+04  2520   0.208E+02
DAV:   3    -0.119715160493E+04   -0.11425E+04   -0.11379E+04  2088   0.111E+02
DAV:   4    -0.124348296516E+04   -0.46331E+02   -0.46077E+02  2016   0.294E+01
DAV:   5    -0.124470800420E+04   -0.12250E+01   -0.12223E+01  2376   0.446E+00    0.735E+01
RMM:   6    -0.122477600121E+04    0.19932E+02   -0.17843E+01  1731   0.423E+00    0.558E+01
RMM:   7    -0.119800158955E+04    0.26774E+02   -0.32164E+01  1611   0.636E+00    0.368E+01
RMM:   8    -0.117784538681E+04    0.20156E+02   -0.32996E+01  1596   0.651E+00    0.247E+01
RMM:   9    -0.117644260348E+04    0.14028E+01   -0.43062E+01  1597   0.724E+00    0.962E+00
RMM:  10    -0.117558910338E+04    0.85350E+00   -0.10704E+00  1822   0.150E+00    0.746E+00
RMM:  11    -0.117500113920E+04    0.58796E+00   -0.18241E+00  1631   0.139E+00    0.362E+00
RMM:  12    -0.117485399671E+04    0.14714E+00   -0.36536E-01  1793   0.585E-01    0.201E+00
RMM:  13    -0.117475099972E+04    0.10300E+00   -0.31420E-01  1585   0.625E-01    0.548E-01
RMM:  14    -0.117474819302E+04    0.28067E-02   -0.20978E-02  1732   0.187E-01    0.291E-01
RMM:  15    -0.117474787989E+04    0.31313E-03   -0.67739E-03  1634   0.952E-02    0.198E-01
RMM:  16    -0.117474792972E+04   -0.49831E-04   -0.15832E-03  1617   0.475E-02    0.125E-01
RMM:  17    -0.117474790371E+04    0.26008E-04   -0.74274E-04  1432   0.310E-02
   1 F= -.11820508E+04 E0= -.11820508E+04  d E =-.118205E+04  mag=    -0.0054
       N       E                     dE             d eps       ncg     rms          rms(c)
DAV:   1    -0.117473580075E+04    0.12129E-01   -0.85206E-01  1620   0.144E+00    0.444E-01
RMM:   2    -0.117474312380E+04   -0.73230E-02   -0.78915E-02  1896   0.320E-01    0.526E-01
RMM:   3    -0.117474348892E+04   -0.36511E-03   -0.43487E-03  1670   0.710E-02    0.602E-01
RMM:   4    -0.117474315486E+04    0.33406E-03   -0.89674E-04  1261   0.272E-02    0.536E-01
RMM:   5    -0.117474313364E+04    0.21217E-04   -0.25968E-03  1603   0.550E-02    0.329E-01
RMM:   6    -0.117474304227E+04    0.91373E-04   -0.16942E-04  1130   0.176E-02
   2 F= -.11820472E+04 E0= -.11820472E+04  d E =0.362495E-02  mag=     0.0005
       N       E                     dE             d eps       ncg     rms          rms(c)
DAV:   1    -0.117474522029E+04   -0.20866E-02   -0.41302E-01  1692   0.101E+00    0.311E-01
RMM:   2    -0.117474858513E+04   -0.33648E-02   -0.38763E-02  1897   0.218E-01    0.245E-01
RMM:   3    -0.117474854057E+04    0.44554E-04   -0.21398E-03  1343   0.481E-02    0.239E-01
RMM:   4    -0.117474842183E+04    0.11874E-03   -0.38479E-04  1113   0.190E-02    0.200E-01
RMM:   5    -0.117474830539E+04    0.11644E-03   -0.13306E-03  1578   0.392E-02    0.547E-02
RMM:   6    -0.117474830142E+04    0.39691E-05   -0.79335E-05  1059   0.136E-02
   3 F= -.11820516E+04 E0= -.11820516E+04  d E =-.773748E-03  mag=     0.0000
