       N       E                     dE             d eps       ncg     rms          rms(c)
DAV:   1     0.460598240646E+04    0.46060E+04   -0.17911E+05  1920   0.947E+02
DAV:   2    -0.862246918122E+02   -0.46922E+04   -0.42866E+04  2432   0.209E+02
DAV:   3    -0.119919236809E+04   -0.11130E+04   -0.11081E+04  2048   0.110E+02
DAV:   4    -0.124438161580E+04   -0.45189E+02   -0.44897E+02  1920   0.293E+01
DAV:   5    -0.124554420634E+04   -0.11626E+01   -0.11584E+01  2272   0.439E+00    0.722E+01
RMM:   6    -0.122856451449E+04    0.16980E+02   -0.10199E+01  1625   0.387E+00    0.551E+01
RMM:   7    -0.119908760344E+04    0.29477E+02   -0.44643E+01  1567   0.811E+00    0.349E+01
RMM:   8    -0.118449392462E+04    0.14594E+02   -0.21765E+01  1546   0.622E+00    0.255E+01
RMM:   9    -0.117837629337E+04    0.61176E+01   -0.13883E+01  1545   0.498E+00    0.177E+01
RMM:  10    -0.117943055645E+04   -0.10543E+01   -0.14132E+01  1582   0.496E+00    0.979E+00
RMM:  11    -0.117960402256E+04   -0.17347E+00   -0.32192E+00  1774   0.251E+00    0.853E+00
RMM:  12    -0.117912800793E+04    0.47601E+00   -0.58038E-01  1972   0.115E+00    0.664E+00
RMM:  13    -0.117846660236E+04    0.66141E+00   -0.93216E-01  1571   0.114E+00    0.299E+00
RMM:  14    -0.117844882740E+04    0.17775E-01   -0.40160E-01  1548   0.845E-01    0.168E+00
RMM:  15    -0.117843251476E+04    0.16313E-01   -0.74347E-02  1761   0.377E-01    0.102E+00
RMM:  16    -0.117843237994E+04    0.13483E-03   -0.19018E-02  1764   0.179E-01    0.886E-01
RMM:  17    -0.117843302636E+04   -0.64642E-03   -0.38475E-03  1562   0.866E-02    0.890E-01
RMM:  18    -0.117843145143E+04    0.15749E-02   -0.71799E-03  1600   0.101E-01    0.611E-01
RMM:  19    -0.117843171427E+04   -0.26285E-03   -0.13329E-03  1977   0.471E-02    0.612E-01
RMM:  20    -0.117843152122E+04    0.19305E-03   -0.26767E-04  1545   0.219E-02    0.634E-01
RMM:  21    -0.117843186687E+04   -0.34565E-03   -0.22165E-03  1758   0.531E-02    0.618E-01
RMM:  22    -0.117843069869E+04    0.11682E-02   -0.73843E-03  2178   0.983E-02    0.708E-01
RMM:  23    -0.117842723242E+04    0.34663E-02   -0.67363E-03  2209   0.936E-02    0.507E-01
RMM:  24    -0.117842548008E+04    0.17523E-02   -0.22940E-03  1771   0.564E-02    0.368E-01
RMM:  25    -0.117842483029E+04    0.64979E-03   -0.20407E-03  1787   0.535E-02    0.256E-01
RMM:  26    -0.117842462668E+04    0.20361E-03   -0.88832E-04  1738   0.388E-02    0.159E-01
RMM:  27    -0.117842467535E+04   -0.48666E-04   -0.35064E-04  1981   0.248E-02    0.999E-02
RMM:  28    -0.117842465505E+04    0.20297E-04   -0.39256E-04  1715   0.240E-02    0.290E-02
RMM:  29    -0.117842466296E+04   -0.79154E-05   -0.80840E-05  2040   0.119E-02    0.229E-02
RMM:  30    -0.117842465950E+04    0.34670E-05   -0.16018E-05  1600   0.518E-03    0.139E-02
RMM:  31    -0.117842466065E+04   -0.11537E-05   -0.69038E-06  1383   0.318E-03    0.891E-03
RMM:  32    -0.117842466176E+04   -0.11095E-05   -0.19234E-06  1087   0.176E-03    0.624E-03
RMM:  33    -0.117842466152E+04    0.23613E-06   -0.78758E-07  1025   0.124E-03
   1 F= -.11855782E+04 E0= -.11855775E+04  d E =-.118558E+04  mag=     0.0003
       N       E                     dE             d eps       ncg     rms          rms(c)
DAV:   1    -0.117761972257E+04    0.80494E+00   -0.96733E+01  1824   0.141E+01    0.719E+00
RMM:   2    -0.117821073625E+04   -0.59101E+00   -0.65054E+00  1719   0.276E+00    0.606E+00
RMM:   3    -0.117832378172E+04   -0.11305E+00   -0.16170E+00  1736   0.119E+00    0.407E+00
RMM:   4    -0.117835239573E+04   -0.28614E-01   -0.29116E-01  1725   0.592E-01    0.148E+00
RMM:   5    -0.117834058561E+04    0.11810E-01   -0.47107E-02  1791   0.267E-01    0.791E-01
RMM:   6    -0.117832055152E+04    0.20034E-01   -0.48581E-02  1579   0.207E-01    0.428E-01
RMM:   7    -0.117831926848E+04    0.12830E-02   -0.61165E-03  1704   0.939E-02    0.280E-01
RMM:   8    -0.117831867697E+04    0.59151E-03   -0.72836E-03  1651   0.942E-02    0.130E-01
RMM:   9    -0.117831860306E+04    0.73906E-04   -0.15697E-03  1900   0.464E-02    0.973E-02
RMM:  10    -0.117831849351E+04    0.10955E-03   -0.26338E-04  1607   0.204E-02    0.687E-02
RMM:  11    -0.117831851539E+04   -0.21885E-04   -0.42318E-04  1563   0.231E-02    0.441E-02
RMM:  12    -0.117831849430E+04    0.21096E-04   -0.70656E-05  1779   0.114E-02    0.252E-02
RMM:  13    -0.117831848100E+04    0.13298E-04   -0.63998E-05  1553   0.872E-03    0.141E-02
RMM:  14    -0.117831847881E+04    0.21846E-05   -0.15373E-05  1578   0.474E-03    0.523E-03
RMM:  15    -0.117831847896E+04   -0.15192E-06   -0.74340E-06  1366   0.321E-03
   2 F= -.11854742E+04 E0= -.11854742E+04  d E =0.104033E+00  mag=     0.0000
       N       E                     dE             d eps       ncg     rms          rms(c)
DAV:   1    -0.117835300027E+04   -0.34521E-01   -0.30492E+01  1728   0.785E+00    0.405E+00
RMM:   2    -0.117852313083E+04   -0.17013E+00   -0.18851E+00  1764   0.157E+00    0.367E+00
RMM:   3    -0.117854932873E+04   -0.26198E-01   -0.43724E-01  1706   0.639E-01    0.283E+00
RMM:   4    -0.117856748517E+04   -0.18156E-01   -0.11318E-01  1644   0.365E-01    0.772E-01
RMM:   5    -0.117855326523E+04    0.14220E-01   -0.20021E-02  1597   0.169E-01    0.413E-01
RMM:   6    -0.117855013751E+04    0.31277E-02   -0.13891E-02  1608   0.111E-01    0.244E-01
RMM:   7    -0.117854985035E+04    0.28717E-03   -0.18080E-03  1946   0.456E-02    0.202E-01
RMM:   8    -0.117854897734E+04    0.87301E-03   -0.39413E-03  1608   0.676E-02    0.634E-02
RMM:   9    -0.117854898974E+04   -0.12398E-04   -0.53678E-04  1937   0.293E-02    0.625E-02
RMM:  10    -0.117854898516E+04    0.45759E-05   -0.10055E-04  1604   0.123E-02    0.550E-02
RMM:  11    -0.117854897358E+04    0.11583E-04   -0.21213E-04  1580   0.147E-02    0.213E-02
RMM:  12    -0.117854896773E+04    0.58467E-05   -0.32995E-05  1645   0.674E-03    0.107E-02
RMM:  13    -0.117854896708E+04    0.65516E-06   -0.13675E-05  1447   0.432E-03    0.934E-03
RMM:  14    -0.117854896595E+04    0.11325E-05   -0.69802E-06  1222   0.283E-03    0.403E-03
RMM:  15    -0.117854896591E+04    0.38264E-07   -0.16477E-06  1075   0.158E-03
   3 F= -.11857033E+04 E0= -.11857033E+04  d E =-.125084E+00  mag=    -0.0000
       N       E                     dE             d eps       ncg     rms          rms(c)
DAV:   1    -0.117850776529E+04    0.41201E-01   -0.27805E+01  1728   0.810E+00    0.147E+00
RMM:   2    -0.117857329136E+04   -0.65526E-01   -0.79476E-01  1762   0.128E+00    0.121E+00
RMM:   3    -0.117857895127E+04   -0.56599E-02   -0.19022E-01  1674   0.556E-01    0.907E-01
RMM:   4    -0.117857386092E+04    0.50904E-02   -0.41190E-02  1792   0.266E-01    0.554E-01
RMM:   5    -0.117857337456E+04    0.48636E-03   -0.12168E-02  1602   0.147E-01    0.323E-01
RMM:   6    -0.117857340641E+04   -0.31852E-04   -0.45162E-03  1658   0.901E-02    0.147E-01
RMM:   7    -0.117857341259E+04   -0.61786E-05   -0.10182E-03  2027   0.431E-02    0.118E-01
RMM:   8    -0.117857317557E+04    0.23702E-03   -0.54144E-04  1564   0.271E-02    0.570E-02
RMM:   9    -0.117857317538E+04    0.19149E-06   -0.33850E-04  1576   0.219E-02    0.313E-02
RMM:  10    -0.117857316581E+04    0.95637E-05   -0.47860E-05  1574   0.989E-03    0.248E-02
RMM:  11    -0.117857315980E+04    0.60121E-05   -0.68835E-05  1541   0.990E-03    0.943E-03
RMM:  12    -0.117857315931E+04    0.48763E-06   -0.93191E-06  1563   0.443E-03
   4 F= -.11857274E+04 E0= -.11857274E+04  d E =-.241416E-01  mag=    -0.0000
       N       E                     dE             d eps       ncg     rms          rms(c)
DAV:   1    -0.117858260118E+04   -0.94414E-02   -0.43483E+00  1696   0.325E+00    0.574E-01
RMM:   2    -0.117859236220E+04   -0.97610E-02   -0.12164E-01  1770   0.500E-01    0.473E-01
RMM:   3    -0.117859306143E+04   -0.69923E-03   -0.28128E-02  1660   0.216E-01    0.356E-01
RMM:   4    -0.117859239090E+04    0.67054E-03   -0.82985E-03  1712   0.117E-01    0.190E-01
RMM:   5    -0.117859237753E+04    0.13363E-04   -0.15798E-03  1723   0.551E-02    0.115E-01
RMM:   6    -0.117859241498E+04   -0.37446E-04   -0.64576E-04  1763   0.309E-02    0.606E-02
RMM:   7    -0.117859237780E+04    0.37184E-04   -0.11130E-04  1751   0.142E-02    0.382E-02
RMM:   8    -0.117859237146E+04    0.63411E-05   -0.15976E-04  1603   0.146E-02    0.165E-02
RMM:   9    -0.117859236906E+04    0.23977E-05   -0.19957E-05  1612   0.656E-03    0.135E-02
RMM:  10    -0.117859236481E+04    0.42436E-05   -0.14066E-05  1507   0.461E-03    0.567E-03
RMM:  11    -0.117859236465E+04    0.16298E-06   -0.39352E-06  1202   0.266E-03
   5 F= -.11857466E+04 E0= -.11857466E+04  d E =-.433524E-01  mag=    -0.0000
       N       E                     dE             d eps       ncg     rms          rms(c)
DAV:   1    -0.117861354547E+04   -0.21181E-01   -0.12558E+01  1536   0.562E+00    0.990E-01
RMM:   2    -0.117863628931E+04   -0.22744E-01   -0.27190E-01  1758   0.797E-01    0.818E-01
RMM:   3    -0.117863900200E+04   -0.27127E-02   -0.73389E-02  1654   0.352E-01    0.597E-01
RMM:   4    -0.117863730553E+04    0.16965E-02   -0.15172E-02  1744   0.172E-01    0.313E-01
RMM:   5    -0.117863765539E+04   -0.34986E-03   -0.50325E-03  1626   0.989E-02    0.160E-01
RMM:   6    -0.117863749010E+04    0.16528E-03   -0.11331E-03  1908   0.480E-02    0.981E-02
RMM:   7    -0.117863747479E+04    0.15312E-04   -0.39498E-04  1831   0.242E-02    0.665E-02
RMM:   8    -0.117863743320E+04    0.41594E-04   -0.11511E-04  1604   0.138E-02    0.404E-02
RMM:   9    -0.117863741914E+04    0.14064E-04   -0.15010E-04  1562   0.153E-02    0.173E-02
RMM:  10    -0.117863741646E+04    0.26787E-05   -0.23622E-05  1642   0.730E-03    0.129E-02
RMM:  11    -0.117863741531E+04    0.11424E-05   -0.16873E-05  1529   0.518E-03    0.598E-03
RMM:  12    -0.117863741550E+04   -0.18289E-06   -0.40392E-06  1229   0.277E-03
   6 F= -.11857933E+04 E0= -.11857933E+04  d E =-.466589E-01  mag=    -0.0000
       N       E                     dE             d eps       ncg     rms          rms(c)
DAV:   1    -0.117863754291E+04   -0.12759E-03   -0.66149E-01  1664   0.129E+00    0.222E-01
RMM:   2    -0.117863868689E+04   -0.11440E-02   -0.14087E-02  1758   0.181E-01    0.185E-01
RMM:   3    -0.117863881705E+04   -0.13016E-03   -0.36761E-03  1652   0.798E-02    0.137E-01
RMM:   4    -0.117863875880E+04    0.58248E-04   -0.98706E-04  1678   0.437E-02    0.593E-02
RMM:   5    -0.117863879162E+04   -0.32811E-04   -0.24709E-04  1824   0.216E-02    0.382E-02
RMM:   6    -0.117863877884E+04    0.12772E-04   -0.56113E-05  1745   0.100E-02    0.218E-02
RMM:   7    -0.117863878137E+04   -0.25244E-05   -0.17370E-05  1637   0.511E-03    0.150E-02
RMM:   8    -0.117863877892E+04    0.24474E-05   -0.77713E-06  1480   0.352E-03    0.776E-03
RMM:   9    -0.117863877908E+04   -0.16390E-06   -0.68102E-06  1464   0.332E-03
   7 F= -.11857950E+04 E0= -.11857950E+04  d E =-.483839E-01  mag=    -0.0000
       N       E                     dE             d eps       ncg     rms          rms(c)
DAV:   1    -0.117865219938E+04   -0.13420E-01   -0.73250E+00  1536   0.420E+00    0.808E-01
RMM:   2    -0.117866108812E+04   -0.88887E-02   -0.11554E-01  1644   0.544E-01    0.745E-01
RMM:   3    -0.117866184443E+04   -0.75631E-03   -0.24399E-02  1772   0.234E-01    0.658E-01
RMM:   4    -0.117866046216E+04    0.13823E-02   -0.10733E-02  1578   0.142E-01    0.234E-01
RMM:   5    -0.117866086425E+04   -0.40209E-03   -0.31600E-03  1742   0.768E-02    0.129E-01
RMM:   6    -0.117866061874E+04    0.24552E-03   -0.48366E-04  1862   0.315E-02    0.869E-02
RMM:   7    -0.117866046830E+04    0.15044E-03   -0.53271E-04  1608   0.258E-02    0.450E-02
RMM:   8    -0.117866045655E+04    0.11754E-04   -0.11229E-04  1788   0.141E-02    0.261E-02
RMM:   9    -0.117866045034E+04    0.62068E-05   -0.11506E-04  1640   0.128E-02    0.137E-02
RMM:  10    -0.117866044766E+04    0.26810E-05   -0.16300E-05  1716   0.585E-03    0.971E-03
RMM:  11    -0.117866044680E+04    0.86160E-06   -0.13207E-05  1528   0.430E-03    0.539E-03
RMM:  12    -0.117866044645E+04    0.34702E-06   -0.26936E-06  1130   0.226E-03
   8 F= -.11858166E+04 E0= -.11858166E+04  d E =-.215748E-01  mag=     0.0000
       N       E                     dE             d eps       ncg     rms          rms(c)
DAV:   1    -0.117866047579E+04   -0.28994E-04   -0.13407E-02  1856   0.180E-01    0.342E-02
RMM:   2    -0.117866048837E+04   -0.12575E-04   -0.21064E-04  1638   0.230E-02    0.318E-02
RMM:   3    -0.117866048907E+04   -0.70403E-06   -0.42455E-05  1712   0.997E-03    0.285E-02
RMM:   4    -0.117866049016E+04   -0.10864E-05   -0.24358E-05  1542   0.674E-03    0.865E-03
RMM:   5    -0.117866049085E+04   -0.69351E-06   -0.55980E-06  1332   0.324E-03
   9 F= -.11858166E+04 E0= -.11858166E+04  d E =-.216157E-01  mag=    -0.0000
       N       E                     dE             d eps       ncg     rms          rms(c)
DAV:   1    -0.117866752507E+04   -0.70349E-02   -0.61081E+00  1536   0.394E+00    0.623E-01
RMM:   2    -0.117867852378E+04   -0.10999E-01   -0.12686E-01  1738   0.561E-01    0.532E-01
RMM:   3    -0.117867992617E+04   -0.14024E-02   -0.29105E-02  1647   0.241E-01    0.414E-01
RMM:   4    -0.117867950697E+04    0.41920E-03   -0.92080E-03  1601   0.134E-01    0.129E-01
RMM:   5    -0.117867970952E+04   -0.20254E-03   -0.20457E-03  1966   0.633E-02    0.951E-02
RMM:   6    -0.117867955646E+04    0.15305E-03   -0.39883E-04  1699   0.254E-02    0.680E-02
RMM:   7    -0.117867954550E+04    0.10965E-04   -0.17410E-04  1711   0.168E-02    0.364E-02
RMM:   8    -0.117867953892E+04    0.65761E-05   -0.10034E-04  1682   0.125E-02    0.212E-02
RMM:   9    -0.117867953337E+04    0.55497E-05   -0.20132E-05  1636   0.646E-03    0.120E-02
RMM:  10    -0.117867953299E+04    0.38664E-06   -0.14985E-05  1529   0.478E-03    0.629E-03
RMM:  11    -0.117867953267E+04    0.31179E-06   -0.29638E-06  1186   0.250E-03
  10 F= -.11858362E+04 E0= -.11858362E+04  d E =-.195430E-01  mag=    -0.0000
       N       E                     dE             d eps       ncg     rms          rms(c)
DAV:   1    -0.117867936890E+04    0.16409E-03   -0.59221E-01  1600   0.123E+00    0.192E-01
RMM:   2    -0.117868038007E+04   -0.10112E-02   -0.12035E-02  1748   0.174E-01    0.164E-01
RMM:   3    -0.117868050881E+04   -0.12873E-03   -0.27298E-03  1645   0.750E-02    0.127E-01
RMM:   4    -0.117868048960E+04    0.19208E-04   -0.92311E-04  1599   0.424E-02    0.383E-02
RMM:   5    -0.117868050732E+04   -0.17725E-04   -0.19685E-04  1972   0.197E-02    0.287E-02
RMM:   6    -0.117868049362E+04    0.13705E-04   -0.37710E-05  1704   0.783E-03    0.210E-02
RMM:   7    -0.117868049284E+04    0.77463E-06   -0.13775E-05  1650   0.487E-03    0.115E-02
RMM:   8    -0.117868049171E+04    0.11392E-05   -0.11561E-05  1538   0.422E-03    0.647E-03
RMM:   9    -0.117868049113E+04    0.58013E-06   -0.29719E-06  1163   0.239E-03
  11 F= -.11858373E+04 E0= -.11858373E+04  d E =-.206640E-01  mag=    -0.0000
       N       E                     dE             d eps       ncg     rms          rms(c)
DAV:   1    -0.117868654777E+04   -0.60561E-02   -0.38002E+00  1536   0.307E+00    0.403E-01
RMM:   2    -0.117869113108E+04   -0.45833E-02   -0.59013E-02  1648   0.392E-01    0.348E-01
RMM:   3    -0.117869120926E+04   -0.78183E-04   -0.11774E-02  1618   0.171E-01    0.287E-01
RMM:   4    -0.117869026009E+04    0.94917E-03   -0.45458E-03  1600   0.975E-02    0.136E-01
RMM:   5    -0.117869040172E+04   -0.14164E-03   -0.19531E-03  1628   0.607E-02    0.728E-02
RMM:   6    -0.117869034782E+04    0.53899E-04   -0.35581E-04  1832   0.274E-02    0.450E-02
RMM:   7    -0.117869036320E+04   -0.15381E-04   -0.10292E-04  1842   0.133E-02    0.290E-02
RMM:   8    -0.117869034592E+04    0.17288E-04   -0.52312E-05  1546   0.919E-03    0.153E-02
RMM:   9    -0.117869034751E+04   -0.15898E-05   -0.33242E-05  1556   0.733E-03    0.978E-03
RMM:  10    -0.117869034489E+04    0.26207E-05   -0.60347E-06  1472   0.343E-03    0.716E-03
RMM:  11    -0.117869034399E+04    0.89835E-06   -0.90866E-06  1514   0.357E-03
  12 F= -.11858472E+04 E0= -.11858472E+04  d E =-.989799E-02  mag=     0.0000
       N       E                     dE             d eps       ncg     rms          rms(c)
DAV:   1    -0.117869034520E+04   -0.31659E-06   -0.15997E-03  1856   0.632E-02    0.850E-03
RMM:   2    -0.117869034710E+04   -0.18963E-05   -0.25930E-05  1644   0.835E-03    0.735E-03
RMM:   3    -0.117869034691E+04    0.19254E-06   -0.52119E-06  1250   0.368E-03
  13 F= -.11858472E+04 E0= -.11858472E+04  d E =-.990226E-02  mag=    -0.0000
       N       E                     dE             d eps       ncg     rms          rms(c)
DAV:   1    -0.117869410057E+04   -0.37535E-02   -0.31436E+00  1536   0.274E+00    0.374E-01
RMM:   2    -0.117869772766E+04   -0.36271E-02   -0.46073E-02  1602   0.340E-01    0.326E-01
RMM:   3    -0.117869790207E+04   -0.17441E-03   -0.90235E-03  1692   0.147E-01    0.272E-01
RMM:   4    -0.117869732553E+04    0.57655E-03   -0.30443E-03  1614   0.800E-02    0.133E-01
RMM:   5    -0.117869748099E+04   -0.15546E-03   -0.14574E-03  1598   0.519E-02    0.629E-02
RMM:   6    -0.117869741424E+04    0.66747E-04   -0.27541E-04  1690   0.240E-02    0.350E-02
RMM:   7    -0.117869742329E+04   -0.90454E-05   -0.96380E-05  1692   0.126E-02    0.222E-02
RMM:   8    -0.117869741341E+04    0.98771E-05   -0.32262E-05  1628   0.738E-03    0.134E-02
RMM:   9    -0.117869741407E+04   -0.66065E-06   -0.25933E-05  1544   0.634E-03    0.865E-03
RMM:  10    -0.117869741189E+04    0.21805E-05   -0.46386E-06  1426   0.300E-03    0.551E-03
RMM:  11    -0.117869741147E+04    0.42064E-06   -0.56790E-06  1404   0.282E-03
  14 F= -.11858545E+04 E0= -.11858545E+04  d E =-.732505E-02  mag=    -0.0000
       N       E                     dE             d eps       ncg     rms          rms(c)
DAV:   1    -0.117869740713E+04    0.47594E-05   -0.18173E-03  1920   0.662E-02    0.910E-03
RMM:   2    -0.117869740920E+04   -0.20658E-05   -0.27404E-05  1614   0.839E-03    0.792E-03
RMM:   3    -0.117869740920E+04   -0.37180E-08   -0.56108E-06  1258   0.372E-03
  15 F= -.11858545E+04 E0= -.11858545E+04  d E =-.732911E-02  mag=    -0.0000
       N       E                     dE             d eps       ncg     rms          rms(c)
DAV:   1    -0.117869987864E+04   -0.24694E-02   -0.21970E+00  1536   0.225E+00    0.304E-01
RMM:   2    -0.117870232988E+04   -0.24512E-02   -0.30618E-02  1560   0.268E-01    0.265E-01
RMM:   3    -0.117870241755E+04   -0.87674E-04   -0.53208E-03  1676   0.113E-01    0.225E-01
RMM:   4    -0.117870213249E+04    0.28506E-03   -0.30113E-03  1574   0.760E-02    0.705E-02
RMM:   5    -0.117870220823E+04   -0.75743E-04   -0.58825E-04  1860   0.350E-02    0.512E-02
RMM:   6    -0.117870214765E+04    0.60583E-04   -0.14960E-04  1576   0.155E-02    0.305E-02
RMM:   7    -0.117870215892E+04   -0.11269E-04   -0.34316E-05  1858   0.795E-03    0.203E-02
RMM:   8    -0.117870215043E+04    0.84931E-05   -0.39330E-05  1542   0.752E-03    0.991E-03
RMM:   9    -0.117870215194E+04   -0.15090E-05   -0.13213E-05  1544   0.459E-03    0.687E-03
RMM:  10    -0.117870215090E+04    0.10398E-05   -0.24884E-06  1124   0.216E-03    0.421E-03
RMM:  11    -0.117870215072E+04    0.17788E-06   -0.19376E-06  1052   0.173E-03
  16 F= -.11858596E+04 E0= -.11858596E+04  d E =-.510006E-02  mag=    -0.0000
       N       E                     dE             d eps       ncg     rms          rms(c)
DAV:   1    -0.117870214208E+04    0.88114E-05   -0.19870E-03  1856   0.678E-02    0.908E-03
RMM:   2    -0.117870214440E+04   -0.23118E-05   -0.28610E-05  1562   0.821E-03    0.797E-03
RMM:   3    -0.117870214452E+04   -0.12207E-06   -0.51321E-06  1234   0.354E-03
  17 F= -.11858596E+04 E0= -.11858596E+04  d E =-.510455E-02  mag=     0.0000
       N       E                     dE             d eps       ncg     rms          rms(c)
DAV:   1    -0.117870496361E+04   -0.28192E-02   -0.20572E+00  1536   0.210E+00    0.291E-01
RMM:   2    -0.117870726500E+04   -0.23014E-02   -0.29028E-02  1594   0.251E-01    0.252E-01
RMM:   3    -0.117870728710E+04   -0.22097E-04   -0.46163E-03  1638   0.105E-01    0.211E-01
RMM:   4    -0.117870703665E+04    0.25045E-03   -0.34995E-03  1546   0.789E-02    0.506E-02
RMM:   5    -0.117870706143E+04   -0.24781E-04   -0.48906E-04  1836   0.336E-02    0.466E-02
RMM:   6    -0.117870701922E+04    0.42209E-04   -0.79943E-05  1604   0.127E-02    0.338E-02
RMM:   7    -0.117870702334E+04   -0.41196E-05   -0.54724E-05  1576   0.914E-03    0.167E-02
RMM:   8    -0.117870701999E+04    0.33571E-05   -0.26490E-05  1632   0.658E-03    0.888E-03
RMM:   9    -0.117870702044E+04   -0.45445E-06   -0.13294E-05  1564   0.468E-03    0.558E-03
RMM:  10    -0.117870701959E+04    0.85111E-06   -0.33382E-06  1255   0.245E-03
  18 F= -.11858647E+04 E0= -.11858647E+04  d E =-.504811E-02  mag=     0.0000
       N       E                     dE             d eps       ncg     rms          rms(c)
DAV:   1    -0.117870706866E+04   -0.48215E-04   -0.31039E-01  1536   0.817E-01    0.112E-01
RMM:   2    -0.117870740938E+04   -0.34072E-03   -0.43804E-03  1594   0.974E-02    0.971E-02
RMM:   3    -0.117870741373E+04   -0.43529E-05   -0.69811E-04  1638   0.406E-02    0.817E-02
RMM:   4    -0.117870738442E+04    0.29312E-04   -0.51373E-04  1544   0.303E-02    0.196E-02
RMM:   5    -0.117870738966E+04   -0.52386E-05   -0.74975E-05  1824   0.131E-02    0.177E-02
RMM:   6    -0.117870738347E+04    0.61840E-05   -0.11751E-05  1593   0.487E-03    0.130E-02
RMM:   7    -0.117870738405E+04   -0.57682E-06   -0.79433E-06  1504   0.349E-03
  19 F= -.11858651E+04 E0= -.11858651E+04  d E =-.547997E-02  mag=     0.0000
       N       E                     dE             d eps       ncg     rms          rms(c)
DAV:   1    -0.117870865206E+04   -0.12686E-02   -0.19071E+00  1536   0.203E+00    0.299E-01
RMM:   2    -0.117871101322E+04   -0.23612E-02   -0.28981E-02  1644   0.255E-01    0.261E-01
RMM:   3    -0.117871109213E+04   -0.78906E-04   -0.49020E-03  1604   0.106E-01    0.216E-01
RMM:   4    -0.117871098323E+04    0.10890E-03   -0.35705E-03  1550   0.793E-02    0.524E-02
RMM:   5    -0.117871097193E+04    0.11309E-04   -0.46202E-04  1878   0.326E-02    0.485E-02
RMM:   6    -0.117871091415E+04    0.57774E-04   -0.10282E-04  1564   0.135E-02    0.328E-02
RMM:   7    -0.117871091468E+04   -0.52471E-06   -0.63226E-05  1576   0.952E-03    0.172E-02
RMM:   8    -0.117871091395E+04    0.72533E-06   -0.32648E-05  1769   0.704E-03    0.899E-03
RMM:   9    -0.117871091450E+04   -0.55150E-06   -0.85213E-06  1611   0.365E-03
  20 F= -.11858688E+04 E0= -.11858688E+04  d E =-.368538E-02  mag=     0.0000
       N       E                     dE             d eps       ncg     rms          rms(c)
DAV:   1    -0.117871091357E+04    0.38234E-06   -0.26728E-02  1728   0.239E-01    0.357E-02
RMM:   2    -0.117871094477E+04   -0.31202E-04   -0.40118E-04  1650   0.299E-02    0.312E-02
RMM:   3    -0.117871094597E+04   -0.12039E-05   -0.68440E-05  1598   0.126E-02    0.260E-02
RMM:   4    -0.117871094760E+04   -0.16223E-05   -0.51259E-05  1556   0.955E-03    0.671E-03
RMM:   5    -0.117871094745E+04    0.14841E-06   -0.71517E-06  1546   0.397E-03
  21 F= -.11858689E+04 E0= -.11858689E+04  d E =-.373665E-02  mag=    -0.0000
       N       E                     dE             d eps       ncg     rms          rms(c)
DAV:   1    -0.117871179139E+04   -0.84379E-03   -0.12653E+00  1536   0.167E+00    0.231E-01
RMM:   2    -0.117871333796E+04   -0.15466E-02   -0.19067E-02  1660   0.209E-01    0.203E-01
RMM:   3    -0.117871343612E+04   -0.98159E-04   -0.33554E-03  1618   0.873E-02    0.170E-01
RMM:   4    -0.117871334995E+04    0.86174E-04   -0.19580E-03  1560   0.604E-02    0.425E-02
RMM:   5    -0.117871337241E+04   -0.22459E-04   -0.30581E-04  1922   0.258E-02    0.368E-02
RMM:   6    -0.117871333974E+04    0.32663E-04   -0.59794E-05  1600   0.102E-02    0.261E-02
RMM:   7    -0.117871334083E+04   -0.10869E-05   -0.38727E-05  1580   0.746E-03    0.137E-02
RMM:   8    -0.117871333943E+04    0.14039E-05   -0.19138E-05  1643   0.542E-03    0.758E-03
RMM:   9    -0.117871333945E+04   -0.19580E-07   -0.63068E-06  1499   0.318E-03
  22 F= -.11858713E+04 E0= -.11858713E+04  d E =-.246752E-02  mag=     0.0000
       N       E                     dE             d eps       ncg     rms          rms(c)
DAV:   1    -0.117871333844E+04    0.99195E-06   -0.79677E-04  1856   0.419E-02    0.632E-03
RMM:   2    -0.117871333936E+04   -0.92031E-06   -0.12069E-05  1590   0.524E-03    0.561E-03
RMM:   3    -0.117871333938E+04   -0.25502E-07   -0.23759E-06  1076   0.231E-03
  23 F= -.11858713E+04 E0= -.11858713E+04  d E =-.246937E-02  mag=    -0.0000
       N       E                     dE             d eps       ncg     rms          rms(c)
DAV:   1    -0.117871418290E+04   -0.84354E-03   -0.73861E-01  1536   0.129E+00    0.171E-01
RMM:   2    -0.117871501594E+04   -0.83304E-03   -0.10865E-02  1656   0.161E-01    0.148E-01
RMM:   3    -0.117871502326E+04   -0.73233E-05   -0.18944E-03  1612   0.680E-02    0.124E-01
RMM:   4    -0.117871493619E+04    0.87073E-04   -0.11296E-03  1558   0.456E-02    0.444E-02
RMM:   5    -0.117871495915E+04   -0.22961E-04   -0.21586E-04  1958   0.210E-02    0.338E-02
RMM:   6    -0.117871494282E+04    0.16330E-04   -0.54947E-05  1582   0.928E-03    0.192E-02
RMM:   7    -0.117871494952E+04   -0.66961E-05   -0.12435E-05  1630   0.502E-03    0.123E-02
RMM:   8    -0.117871494588E+04    0.36341E-05   -0.21280E-05  1538   0.540E-03    0.519E-03
RMM:   9    -0.117871494628E+04   -0.39412E-06   -0.59298E-06  1451   0.305E-03
  24 F= -.11858729E+04 E0= -.11858729E+04  d E =-.157376E-02  mag=    -0.0000
       N       E                     dE             d eps       ncg     rms          rms(c)
DAV:   1    -0.117871495097E+04   -0.50903E-05   -0.24117E-03  1856   0.735E-02    0.107E-02
RMM:   2    -0.117871495330E+04   -0.23280E-05   -0.35726E-05  1658   0.923E-03    0.935E-03
RMM:   3    -0.117871495305E+04    0.25097E-06   -0.65437E-06  1303   0.398E-03
  25 F= -.11858729E+04 E0= -.11858729E+04  d E =-.157865E-02  mag=    -0.0000
       N       E                     dE             d eps       ncg     rms          rms(c)
DAV:   1    -0.117871573707E+04   -0.78377E-03   -0.56459E-01  1536   0.115E+00    0.151E-01
RMM:   2    -0.117871631693E+04   -0.57987E-03   -0.79279E-03  1594   0.140E-01    0.135E-01
RMM:   3    -0.117871629319E+04    0.23746E-04   -0.13378E-03  1616   0.589E-02    0.115E-01
RMM:   4    -0.117871619346E+04    0.99727E-04   -0.12133E-03  1554   0.468E-02    0.313E-02
RMM:   5    -0.117871620157E+04   -0.81118E-05   -0.16807E-04  1858   0.198E-02    0.282E-02
RMM:   6    -0.117871618421E+04    0.17359E-04   -0.41871E-05  1560   0.842E-03    0.179E-02
RMM:   7    -0.117871618826E+04   -0.40486E-05   -0.17489E-05  1658   0.523E-03    0.951E-03
RMM:   8    -0.117871618679E+04    0.14701E-05   -0.65485E-06  1518   0.335E-03    0.475E-03
RMM:   9    -0.117871618687E+04   -0.76601E-07   -0.34530E-06  1226   0.240E-03
  26 F= -.11858741E+04 E0= -.11858741E+04  d E =-.118950E-02  mag=     0.0000
