       N       E                     dE             d eps       ncg     rms          rms(c)
DAV:   1     0.488177977250E+04    0.48818E+04   -0.17236E+05  1872   0.908E+02
DAV:   2    -0.569543950293E+02   -0.49387E+04   -0.45057E+04  2520   0.207E+02
DAV:   3    -0.119098801324E+04   -0.11340E+04   -0.11290E+04  2088   0.110E+02
DAV:   4    -0.123820569754E+04   -0.47218E+02   -0.46991E+02  2052   0.302E+01
DAV:   5    -0.123955161711E+04   -0.13459E+01   -0.13433E+01  2340   0.474E+00    0.659E+01
RMM:   6    -0.122462337437E+04    0.14928E+02   -0.92274E+00  1628   0.339E+00    0.534E+01
RMM:   7    -0.118655300216E+04    0.38070E+02   -0.73877E+01  1632   0.974E+00    0.325E+01
RMM:   8    -0.118147296446E+04    0.50800E+01   -0.60297E+00  1661   0.320E+00    0.267E+01
RMM:   9    -0.117413563744E+04    0.73373E+01   -0.35545E+01  1589   0.670E+00    0.156E+01
RMM:  10    -0.117525533706E+04   -0.11197E+01   -0.85381E+00  1591   0.364E+00    0.113E+01
RMM:  11    -0.117305530037E+04    0.22000E+01   -0.35217E+00  1639   0.185E+00    0.535E+00
RMM:  12    -0.117256954602E+04    0.48575E+00   -0.76283E-01  1621   0.994E-01    0.366E+00
RMM:  13    -0.117242716627E+04    0.14238E+00   -0.60145E-01  1597   0.897E-01    0.142E+00
RMM:  14    -0.117240504167E+04    0.22125E-01   -0.11099E-01  1617   0.504E-01    0.105E+00
RMM:  15    -0.117239582163E+04    0.92200E-02   -0.51098E-02  1796   0.180E-01    0.511E-01
RMM:  16    -0.117239544343E+04    0.37820E-03   -0.24200E-03  1369   0.597E-02    0.507E-01
RMM:  17    -0.117239583867E+04   -0.39523E-03   -0.20330E-03  1454   0.391E-02    0.429E-01
RMM:  18    -0.117239592097E+04   -0.82305E-04   -0.15188E-03  1556   0.478E-02    0.230E-01
RMM:  19    -0.117239610684E+04   -0.18587E-03   -0.11992E-03  1599   0.427E-02    0.101E-01
RMM:  20    -0.117239603096E+04    0.75885E-04   -0.18984E-04  1059   0.204E-02
   1 F= -.11794321E+04 E0= -.11794321E+04  d E =-.117943E+04  mag=     1.0016
       N       E                     dE             d eps       ncg     rms          rms(c)
DAV:   1    -0.117188018050E+04    0.51593E+00   -0.45410E+01  1764   0.669E+00    0.734E+00
RMM:   2    -0.117225954620E+04   -0.37937E+00   -0.41696E+00  1710   0.127E+00    0.727E+00
RMM:   3    -0.117217928657E+04    0.80260E-01   -0.17096E-01  1662   0.339E-01    0.687E+00
RMM:   4    -0.117216342906E+04    0.15858E-01   -0.33405E-01  1662   0.502E-01    0.116E+00
RMM:   5    -0.117215804327E+04    0.53858E-02   -0.21665E-02  1644   0.148E-01    0.103E+00
RMM:   6    -0.117215390547E+04    0.41378E-02   -0.37374E-03  1599   0.576E-02    0.636E-01
RMM:   7    -0.117214584183E+04    0.80636E-02   -0.19902E-02  1613   0.122E-01    0.489E-01
RMM:   8    -0.117214542271E+04    0.41913E-03   -0.34852E-03  1383   0.683E-02    0.122E-01
RMM:   9    -0.117214513189E+04    0.29082E-03   -0.91651E-04  1176   0.292E-02    0.106E-01
RMM:  10    -0.117214510859E+04    0.23297E-04   -0.13591E-04  1052   0.151E-02
   2 F= -.11791871E+04 E0= -.11791871E+04  d E =0.244996E+00  mag=     1.0000
       N       E                     dE             d eps       ncg     rms          rms(c)
DAV:   1    -0.117229293184E+04   -0.14780E+00   -0.24070E+01  1728   0.542E+00    0.556E+00
RMM:   2    -0.117249544583E+04   -0.20251E+00   -0.23572E+00  1674   0.890E-01    0.542E+00
RMM:   3    -0.117244053592E+04    0.54910E-01   -0.11829E-01  1585   0.262E-01    0.523E+00
RMM:   4    -0.117242525373E+04    0.15282E-01   -0.92291E-02  1691   0.245E-01    0.198E+00
RMM:   5    -0.117243036032E+04   -0.51066E-02   -0.22592E-02  1569   0.145E-01    0.757E-01
RMM:   6    -0.117242598722E+04    0.43731E-02   -0.82833E-03  1646   0.831E-02    0.277E-01
RMM:   7    -0.117242431684E+04    0.16704E-02   -0.25599E-03  1307   0.520E-02    0.270E-01
RMM:   8    -0.117242403071E+04    0.28612E-03   -0.18868E-03  1389   0.417E-02    0.507E-02
RMM:   9    -0.117242396862E+04    0.62090E-04   -0.15617E-04  1057   0.183E-02
   3 F= -.11794616E+04 E0= -.11794616E+04  d E =-.295586E-01  mag=     1.0000
