       N       E                     dE             d eps       ncg     rms          rms(c)
DAV:   1     0.493937077682E+04    0.49394E+04   -0.16871E+05  1800   0.904E+02
DAV:   2    -0.469468557547E+02   -0.49863E+04   -0.45234E+04  2520   0.208E+02
DAV:   3    -0.118313109806E+04   -0.11362E+04   -0.11317E+04  2160   0.110E+02
DAV:   4    -0.122787671392E+04   -0.44746E+02   -0.44532E+02  2052   0.287E+01
DAV:   5    -0.122903229163E+04   -0.11556E+01   -0.11526E+01  2304   0.426E+00    0.639E+01
RMM:   6    -0.120960571364E+04    0.19427E+02   -0.18615E+01  1584   0.427E+00    0.523E+01
RMM:   7    -0.119092270869E+04    0.18683E+02   -0.13624E+01  1584   0.428E+00    0.401E+01
RMM:   8    -0.116459639408E+04    0.26326E+02   -0.41129E+01  1584   0.734E+00    0.250E+01
RMM:   9    -0.116182284355E+04    0.27736E+01   -0.38360E+01  1584   0.700E+00    0.912E+00
RMM:  10    -0.116201392327E+04   -0.19108E+00   -0.14745E+00  1617   0.155E+00    0.752E+00
RMM:  11    -0.116112254192E+04    0.89138E+00   -0.30947E+00  1584   0.189E+00    0.276E+00
RMM:  12    -0.116098711505E+04    0.13543E+00   -0.21315E-01  1588   0.461E-01    0.161E+00
RMM:  13    -0.116094065231E+04    0.46463E-01   -0.83433E-02  1584   0.323E-01    0.937E-01
RMM:  14    -0.116093243393E+04    0.82184E-02   -0.73454E-02  1584   0.302E-01    0.248E-01
RMM:  15    -0.116093181546E+04    0.61847E-03   -0.44234E-03  1656   0.831E-02    0.221E-01
RMM:  16    -0.116093202180E+04   -0.20634E-03   -0.71990E-04  1395   0.302E-02    0.178E-01
RMM:  17    -0.116093170870E+04    0.31310E-03   -0.11522E-03  1581   0.382E-02    0.990E-02
RMM:  18    -0.116093171065E+04   -0.19515E-05   -0.16401E-04  1079   0.160E-02
   1 F= -.11681865E+04 E0= -.11681865E+04  d E =-.116819E+04  mag=     0.9948
       N       E                     dE             d eps       ncg     rms          rms(c)
DAV:   1    -0.116092892305E+04    0.27856E-02   -0.19154E+00  1656   0.201E+00    0.593E-01
RMM:   2    -0.116093202904E+04   -0.31060E-02   -0.42478E-02  1584   0.270E-01    0.532E-01
RMM:   3    -0.116093136989E+04    0.65914E-03   -0.29513E-03  1671   0.612E-02    0.474E-01
RMM:   4    -0.116092991880E+04    0.14511E-02   -0.68654E-03  1584   0.925E-02    0.169E-01
RMM:   5    -0.116092997120E+04   -0.52392E-04   -0.41615E-04  1311   0.253E-02
   2 F= -.11681860E+04 E0= -.11681860E+04  d E =0.463257E-03  mag=     0.9993
       N       E                     dE             d eps       ncg     rms          rms(c)
DAV:   1    -0.116093403219E+04   -0.41134E-02   -0.49787E-01  1800   0.103E+00    0.296E-01
RMM:   2    -0.116093465154E+04   -0.61935E-03   -0.99002E-03  1587   0.132E-01    0.257E-01
RMM:   3    -0.116093432871E+04    0.32283E-03   -0.71298E-04  1330   0.311E-02    0.215E-01
RMM:   4    -0.116093392017E+04    0.40854E-03   -0.25022E-03  1584   0.552E-02    0.733E-02
RMM:   5    -0.116093391079E+04    0.93842E-05   -0.62876E-05  1029   0.115E-02
   3 F= -.11681893E+04 E0= -.11681893E+04  d E =-.282859E-02  mag=     0.9999
       N       E                     dE             d eps       ncg     rms          rms(c)
DAV:   1    -0.116093602143E+04   -0.21013E-02   -0.88052E-01  1692   0.134E+00    0.346E-01
RMM:   2    -0.116093680919E+04   -0.78777E-03   -0.16395E-02  1584   0.190E-01    0.284E-01
RMM:   3    -0.116093592261E+04    0.88658E-03   -0.12039E-03  1608   0.441E-02    0.227E-01
RMM:   4    -0.116093490699E+04    0.10156E-02   -0.40272E-03  1584   0.682E-02    0.965E-02
RMM:   5    -0.116093489231E+04    0.14687E-04   -0.17929E-04  1085   0.173E-02
   4 F= -.11681899E+04 E0= -.11681899E+04  d E =-.557711E-03  mag=     1.0000
       N       E                     dE             d eps       ncg     rms          rms(c)
DAV:   1    -0.116093575753E+04   -0.85053E-03   -0.16032E-01  1728   0.570E-01    0.136E-01
RMM:   2    -0.116093585169E+04   -0.94158E-04   -0.27605E-03  1584   0.781E-02    0.113E-01
RMM:   3    -0.116093566650E+04    0.18518E-03   -0.20546E-04  1075   0.192E-02    0.894E-02
RMM:   4    -0.116093547737E+04    0.18913E-03   -0.82958E-04  1556   0.314E-02    0.367E-02
RMM:   5    -0.116093547909E+04   -0.17121E-05   -0.29127E-05   989   0.764E-03
   5 F= -.11681906E+04 E0= -.11681906E+04  d E =-.132205E-02  mag=     1.0000
       N       E                     dE             d eps       ncg     rms          rms(c)
DAV:   1    -0.116093582823E+04   -0.35086E-03   -0.54987E-01  1728   0.101E+00    0.153E-01
RMM:   2    -0.116093649936E+04   -0.67113E-03   -0.88580E-03  1584   0.144E-01    0.145E-01
RMM:   3    -0.116093640676E+04    0.92595E-04   -0.44401E-04  1263   0.293E-02
   6 F= -.11681917E+04 E0= -.11681917E+04  d E =-.103367E-02  mag=     1.0000
       N       E                     dE             d eps       ncg     rms          rms(c)
DAV:   1    -0.116093609980E+04    0.39956E-03   -0.46774E-03  1728   0.997E-02    0.507E-02
RMM:   2    -0.116093612745E+04   -0.27656E-04   -0.29772E-04  1190   0.271E-02
   7 F= -.11681914E+04 E0= -.11681914E+04  d E =-.746768E-03  mag=     1.0000
