       N       E                     dE             d eps       ncg     rms          rms(c)
DAV:   1     0.494681988167E+04    0.49468E+04   -0.17165E+05  1728   0.991E+02
DAV:   2     0.510807673740E+02   -0.48957E+04   -0.44855E+04  2232   0.226E+02
DAV:   3    -0.116839880706E+04   -0.12195E+04   -0.12130E+04  1836   0.123E+02
DAV:   4    -0.123373375503E+04   -0.65335E+02   -0.64768E+02  1980   0.410E+01
DAV:   5    -0.123587640666E+04   -0.21427E+01   -0.21290E+01  1872   0.642E+00    0.642E+01
RMM:   6    -0.121865711582E+04    0.17219E+02   -0.93910E+00  1718   0.426E+00    0.524E+01
RMM:   7    -0.118857975875E+04    0.30077E+02   -0.12811E+02  1773   0.144E+01    0.353E+01
RMM:   8    -0.117951971217E+04    0.90600E+01   -0.54340E+00  1764   0.752E+00    0.308E+01
RMM:   9    -0.117365168149E+04    0.58680E+01   -0.52443E+00  1879   0.247E+00    0.259E+01
RMM:  10    -0.117134798375E+04    0.23037E+01   -0.25326E+01  1581   0.647E+00    0.188E+01
RMM:  11    -0.117222224048E+04   -0.87426E+00   -0.62658E+00  1642   0.735E+00    0.145E+01
RMM:  12    -0.116871860500E+04    0.35036E+01   -0.33312E+00  1657   0.261E+00    0.104E+01
RMM:  13    -0.116658734161E+04    0.21313E+01   -0.33550E+00  1669   0.359E+00    0.479E+00
RMM:  14    -0.116655179398E+04    0.35548E-01   -0.88131E-01  1684   0.967E-01    0.408E+00
RMM:  15    -0.116634885373E+04    0.20294E+00   -0.50870E-01  1722   0.127E+00    0.262E+00
RMM:  16    -0.116623414516E+04    0.11471E+00   -0.41728E-01  1588   0.921E-01    0.205E+00
RMM:  17    -0.116619003976E+04    0.44105E-01   -0.10258E-01  1623   0.101E+00    0.121E+00
RMM:  18    -0.116620046494E+04   -0.10425E-01   -0.29896E-02  1704   0.256E-01    0.102E+00
RMM:  19    -0.116620447176E+04   -0.40068E-02   -0.39899E-03  1475   0.225E-01    0.109E+00
RMM:  20    -0.116620076503E+04    0.37067E-02   -0.24483E-03  1534   0.753E-02    0.105E+00
RMM:  21    -0.116619064283E+04    0.10122E-01   -0.94282E-03  1562   0.135E-01    0.113E+00
RMM:  22    -0.116618955463E+04    0.10882E-02   -0.13627E-03  1205   0.591E-02    0.114E+00
RMM:  23    -0.116619000928E+04   -0.45465E-03   -0.17608E-04   965   0.441E-02    0.112E+00
RMM:  24    -0.116619049167E+04   -0.48238E-03   -0.87746E-05   938   0.181E-02    0.112E+00
RMM:  25    -0.116619895925E+04   -0.84676E-02   -0.13963E-02  1572   0.116E-01    0.963E-01
RMM:  26    -0.116620626807E+04   -0.73088E-02   -0.35161E-02  1842   0.229E-01    0.822E-01
RMM:  27    -0.116620875484E+04   -0.24868E-02   -0.31056E-03  1358   0.712E-02    0.732E-01
RMM:  28    -0.116620662713E+04    0.21277E-02   -0.13250E-02  1726   0.138E-01    0.677E-01
RMM:  29    -0.116620543276E+04    0.11944E-02   -0.57509E-03  1492   0.101E-01    0.718E-01
RMM:  30    -0.116620637829E+04   -0.94553E-03   -0.31141E-03  1397   0.802E-02    0.519E-01
RMM:  31    -0.116620715544E+04   -0.77715E-03   -0.42882E-04  1057   0.444E-02    0.477E-01
RMM:  32    -0.116620794488E+04   -0.78944E-03   -0.99781E-04  1118   0.513E-02    0.396E-01
RMM:  33    -0.116620810024E+04   -0.15537E-03   -0.63161E-04  1063   0.496E-02    0.354E-01
RMM:  34    -0.116620798727E+04    0.11298E-03   -0.21016E-04   969   0.367E-02    0.288E-01
RMM:  35    -0.116620798375E+04    0.35157E-05   -0.19998E-04   970   0.285E-02
   1 F= -.11732774E+04 E0= -.11732771E+04  d E =-.117328E+04  mag=     0.9860
       N       E                     dE             d eps       ncg     rms          rms(c)
DAV:   1    -0.116620768842E+04    0.29885E-03   -0.22558E-01  1620   0.842E-01    0.261E-01
RMM:   2    -0.116620775661E+04   -0.68192E-04   -0.71163E-03  1702   0.148E-01    0.158E-01
RMM:   3    -0.116620749345E+04    0.26316E-03   -0.85003E-04  1315   0.948E-02    0.126E-01
RMM:   4    -0.116620711985E+04    0.37360E-03   -0.71458E-04  1374   0.455E-02    0.731E-02
RMM:   5    -0.116620707290E+04    0.46959E-04   -0.36244E-04  1055   0.579E-02
   2 F= -.11732767E+04 E0= -.11732763E+04  d E =0.686022E-03  mag=     1.0017
       N       E                     dE             d eps       ncg     rms          rms(c)
DAV:   1    -0.116620810085E+04   -0.98099E-03   -0.12560E-01  1512   0.623E-01    0.152E-01
RMM:   2    -0.116620829581E+04   -0.19497E-03   -0.32555E-03  1548   0.102E-01    0.135E-01
RMM:   3    -0.116620809950E+04    0.19632E-03   -0.57946E-04  1210   0.963E-02    0.122E-01
RMM:   4    -0.116620792552E+04    0.17398E-03   -0.34816E-04  1066   0.309E-02    0.947E-02
RMM:   5    -0.116620776418E+04    0.16133E-03   -0.23476E-04   978   0.417E-02    0.778E-02
RMM:   6    -0.116620782581E+04   -0.61625E-04   -0.75206E-05   900   0.298E-02
   3 F= -.11732773E+04 E0= -.11732770E+04  d E =0.984159E-04  mag=     1.0004
