       N       E                     dE             d eps       ncg     rms          rms(c)
DAV:   1     0.491975699207E+04    0.49198E+04   -0.17144E+05  1836   0.913E+02
DAV:   2    -0.589086277729E+02   -0.49787E+04   -0.45531E+04  2556   0.209E+02
DAV:   3    -0.118721924318E+04   -0.11283E+04   -0.11227E+04  2088   0.110E+02
DAV:   4    -0.123328236014E+04   -0.46063E+02   -0.45839E+02  2016   0.291E+01
DAV:   5    -0.123448238473E+04   -0.12000E+01   -0.11977E+01  2412   0.429E+00    0.646E+01
RMM:   6    -0.121751977363E+04    0.16963E+02   -0.21341E+01  1584   0.487E+00    0.515E+01
RMM:   7    -0.120048913798E+04    0.17031E+02   -0.10818E+01  1584   0.373E+00    0.402E+01
RMM:   8    -0.117592032334E+04    0.24569E+02   -0.30131E+01  1584   0.629E+00    0.266E+01
RMM:   9    -0.116651997487E+04    0.94003E+01   -0.23400E+01  1584   0.553E+00    0.167E+01
RMM:  10    -0.116740252737E+04   -0.88255E+00   -0.99892E+00  1584   0.364E+00    0.902E+00
RMM:  11    -0.116743578166E+04   -0.33254E-01   -0.60783E-01  1629   0.996E-01    0.606E+00
RMM:  12    -0.116697081705E+04    0.46496E+00   -0.20612E+00  1584   0.154E+00    0.384E+00
RMM:  13    -0.116682233913E+04    0.14848E+00   -0.37450E-01  1596   0.545E-01    0.109E+00
RMM:  14    -0.116683200324E+04   -0.96641E-02   -0.21977E-02  1599   0.135E-01    0.907E-01
RMM:  15    -0.116683012095E+04    0.18823E-02   -0.14911E-02  1591   0.126E-01    0.370E-01
RMM:  16    -0.116683021377E+04   -0.92815E-04   -0.44209E-03  1604   0.721E-02    0.210E-01
RMM:  17    -0.116683038863E+04   -0.17487E-03   -0.14831E-03  1448   0.396E-02    0.102E-01
RMM:  18    -0.116683043815E+04   -0.49513E-04   -0.48281E-04  1170   0.234E-02
   1 F= -.11740129E+04 E0= -.11740129E+04  d E =-.117401E+04  mag=     0.9973
       N       E                     dE             d eps       ncg     rms          rms(c)
DAV:   1    -0.116682721987E+04    0.31688E-02   -0.15355E+00  1584   0.181E+00    0.399E-01
RMM:   2    -0.116682968895E+04   -0.24691E-02   -0.34084E-02  1584   0.255E-01    0.343E-01
RMM:   3    -0.116682929008E+04    0.39887E-03   -0.23852E-03  1679   0.566E-02    0.302E-01
RMM:   4    -0.116682861844E+04    0.67164E-03   -0.14867E-03  1571   0.451E-02    0.199E-01
RMM:   5    -0.116682852866E+04    0.89778E-04   -0.17071E-03  1584   0.463E-02    0.898E-02
RMM:   6    -0.116682849242E+04    0.36238E-04   -0.18218E-04  1063   0.170E-02
   2 F= -.11740114E+04 E0= -.11740114E+04  d E =0.147466E-02  mag=     0.9998
       N       E                     dE             d eps       ncg     rms          rms(c)
DAV:   1    -0.116683262718E+04   -0.40985E-02   -0.49957E-01  1620   0.103E+00    0.216E-01
RMM:   2    -0.116683318053E+04   -0.55336E-03   -0.89049E-03  1584   0.138E-01    0.189E-01
RMM:   3    -0.116683300559E+04    0.17495E-03   -0.56532E-04  1289   0.292E-02    0.165E-01
RMM:   4    -0.116683274556E+04    0.26003E-03   -0.59604E-04  1507   0.290E-02    0.103E-01
RMM:   5    -0.116683271140E+04    0.34158E-04   -0.49655E-04  1418   0.257E-02
   3 F= -.11740154E+04 E0= -.11740154E+04  d E =-.247416E-02  mag=     1.0000
       N       E                     dE             d eps       ncg     rms          rms(c)
DAV:   1    -0.116683380046E+04   -0.10549E-02   -0.93366E-01  1584   0.134E+00    0.282E-01
RMM:   2    -0.116683457761E+04   -0.77715E-03   -0.14408E-02  1584   0.170E-01    0.239E-01
RMM:   3    -0.116683410994E+04    0.46767E-03   -0.83969E-04  1444   0.372E-02    0.194E-01
RMM:   4    -0.116683355078E+04    0.55916E-03   -0.15036E-03  1584   0.435E-02    0.105E-01
RMM:   5    -0.116683352530E+04    0.25481E-04   -0.47460E-04  1274   0.249E-02
   4 F= -.11740166E+04 E0= -.11740166E+04  d E =-.115710E-02  mag=     1.0000
       N       E                     dE             d eps       ncg     rms          rms(c)
DAV:   1    -0.116683414388E+04   -0.59310E-03   -0.98735E-02  1728   0.437E-01    0.905E-02
RMM:   2    -0.116683418814E+04   -0.44263E-04   -0.14935E-03  1558   0.547E-02    0.774E-02
RMM:   3    -0.116683411056E+04    0.77582E-04   -0.96030E-05  1003   0.134E-02
   5 F= -.11740170E+04 E0= -.11740170E+04  d E =-.163290E-02  mag=     1.0000
       N       E                     dE             d eps       ncg     rms          rms(c)
DAV:   1    -0.116683198170E+04    0.22064E-02   -0.45732E-01  1728   0.107E+00    0.181E-01
RMM:   2    -0.116683268574E+04   -0.70404E-03   -0.10217E-02  1584   0.154E-01    0.168E-01
RMM:   3    -0.116683250070E+04    0.18504E-03   -0.46462E-04  1262   0.295E-02    0.151E-01
RMM:   4    -0.116683198168E+04    0.51902E-03   -0.22316E-03  1584   0.523E-02    0.625E-02
RMM:   5    -0.116683198845E+04   -0.67631E-05   -0.82609E-05  1035   0.135E-02
   6 F= -.11740153E+04 E0= -.11740153E+04  d E =0.176268E-02  mag=     1.0000
       N       E                     dE             d eps       ncg     rms          rms(c)
DAV:   1    -0.116683450361E+04   -0.25219E-02   -0.18108E-01  1728   0.672E-01    0.989E-02
RMM:   2    -0.116683477921E+04   -0.27560E-03   -0.38804E-03  1584   0.945E-02    0.918E-02
RMM:   3    -0.116683470696E+04    0.72248E-04   -0.15100E-04  1080   0.179E-02
   7 F= -.11740178E+04 E0= -.11740178E+04  d E =-.729414E-03  mag=     1.0000
