       N       E                     dE             d eps       ncg     rms          rms(c)
DAV:   1     0.493888730484E+04    0.49389E+04   -0.16989E+05  1692   0.987E+02
DAV:   2     0.151270904140E+02   -0.49238E+04   -0.45285E+04  2268   0.220E+02
DAV:   3    -0.117445267444E+04   -0.11896E+04   -0.11836E+04  1944   0.118E+02
DAV:   4    -0.122756714302E+04   -0.53114E+02   -0.52695E+02  1872   0.328E+01
DAV:   5    -0.122901910256E+04   -0.14520E+01   -0.14485E+01  2088   0.494E+00    0.691E+01
RMM:   6    -0.121544170109E+04    0.13577E+02   -0.77889E+00  1446   0.336E+00    0.579E+01
RMM:   7    -0.117226699348E+04    0.43175E+02   -0.66931E+01  1445   0.986E+00    0.342E+01
RMM:   8    -0.116236806442E+04    0.98989E+01   -0.29884E+01  1453   0.655E+00    0.206E+01
RMM:   9    -0.116310221006E+04   -0.73415E+00   -0.14244E+01  1448   0.466E+00    0.985E+00
RMM:  10    -0.116333603755E+04   -0.23383E+00   -0.13667E+00  1480   0.149E+00    0.651E+00
RMM:  11    -0.116248261148E+04    0.85343E+00   -0.44960E+00  1446   0.236E+00    0.307E+00
RMM:  12    -0.116230862763E+04    0.17398E+00   -0.17930E-01  1468   0.466E-01    0.144E+00
RMM:  13    -0.116228343168E+04    0.25196E-01   -0.58879E-02  1524   0.168E-01    0.904E-01
RMM:  14    -0.116228028888E+04    0.31428E-02   -0.19612E-02  1494   0.138E-01    0.559E-01
RMM:  15    -0.116227683819E+04    0.34507E-02   -0.11397E-02  1519   0.865E-02    0.300E-01
RMM:  16    -0.116227696043E+04   -0.12224E-03   -0.40810E-03  1519   0.625E-02    0.156E-01
RMM:  17    -0.116227709365E+04   -0.13322E-03   -0.49501E-04  1119   0.233E-02    0.721E-02
RMM:  18    -0.116227709607E+04   -0.24233E-05   -0.96478E-05   921   0.116E-02
   1 F= -.11693638E+04 E0= -.11693638E+04  d E =-.116936E+04  mag=     0.9969
       N       E                     dE             d eps       ncg     rms          rms(c)
DAV:   1    -0.116227730740E+04   -0.21375E-03   -0.48384E-01  1584   0.110E+00    0.808E-01
RMM:   2    -0.116227865237E+04   -0.13450E-02   -0.18900E-02  1467   0.154E-01    0.736E-01
RMM:   3    -0.116227776005E+04    0.89232E-03   -0.20570E-03  1457   0.547E-02    0.430E-01
RMM:   4    -0.116227791462E+04   -0.15457E-03   -0.24311E-03  1445   0.568E-02    0.106E-01
RMM:   5    -0.116227767686E+04    0.23776E-03   -0.45695E-04  1073   0.218E-02    0.511E-02
RMM:   6    -0.116227766928E+04    0.75869E-05   -0.76213E-05   900   0.105E-02
   2 F= -.11693643E+04 E0= -.11693643E+04  d E =-.542609E-03  mag=     0.9999
       N       E                     dE             d eps       ncg     rms          rms(c)
DAV:   1    -0.116227850980E+04   -0.83294E-03   -0.10500E-01  1440   0.511E-01    0.385E-01
RMM:   2    -0.116227872541E+04   -0.21561E-03   -0.35008E-03  1453   0.684E-02    0.348E-01
RMM:   3    -0.116227850151E+04    0.22390E-03   -0.47887E-04  1120   0.270E-02    0.181E-01
RMM:   4    -0.116227852444E+04   -0.22939E-04   -0.40415E-04  1097   0.251E-02
   3 F= -.11693652E+04 E0= -.11693652E+04  d E =-.141139E-02  mag=     0.9999
       N       E                     dE             d eps       ncg     rms          rms(c)
DAV:   1    -0.116227952848E+04   -0.10270E-02   -0.26293E-01  1440   0.823E-01    0.490E-01
RMM:   2    -0.116227982365E+04   -0.29516E-03   -0.68049E-03  1445   0.107E-01    0.442E-01
RMM:   3    -0.116227915553E+04    0.66812E-03   -0.14505E-03  1442   0.461E-02    0.218E-01
RMM:   4    -0.116227922555E+04   -0.70021E-04   -0.10567E-03  1443   0.375E-02    0.650E-02
RMM:   5    -0.116227912535E+04    0.10020E-03   -0.24981E-04   980   0.159E-02    0.307E-02
RMM:   6    -0.116227912891E+04   -0.35543E-05   -0.17951E-05   855   0.627E-03
   4 F= -.11693658E+04 E0= -.11693658E+04  d E =-.659664E-03  mag=     0.9999
       N       E                     dE             d eps       ncg     rms          rms(c)
DAV:   1    -0.116227933774E+04   -0.21239E-03   -0.26461E-02  1584   0.261E-01    0.158E-01
RMM:   2    -0.116227935394E+04   -0.16203E-04   -0.65495E-04  1059   0.332E-02
   5 F= -.11693661E+04 E0= -.11693660E+04  d E =-.866841E-03  mag=     0.9999
