       N       E                     dE             d eps       ncg     rms          rms(c)
DAV:   1     0.506670756702E+04    0.50667E+04   -0.17361E+05  1800   0.927E+02
DAV:   2    -0.166559117572E+02   -0.50834E+04   -0.46688E+04  2556   0.214E+02
DAV:   3    -0.118688323540E+04   -0.11702E+04   -0.11632E+04  2016   0.113E+02
DAV:   4    -0.123693808747E+04   -0.50055E+02   -0.49766E+02  2016   0.311E+01
DAV:   5    -0.123821480025E+04   -0.12767E+01   -0.12739E+01  2376   0.453E+00    0.661E+01
RMM:   6    -0.122474260322E+04    0.13472E+02   -0.32258E+01  1584   0.587E+00    0.571E+01
RMM:   7    -0.121083357576E+04    0.13909E+02   -0.48833E+00  1584   0.257E+00    0.463E+01
RMM:   8    -0.118925615043E+04    0.21577E+02   -0.19020E+01  1584   0.516E+00    0.317E+01
RMM:   9    -0.117287008777E+04    0.16386E+02   -0.26488E+01  1584   0.599E+00    0.215E+01
RMM:  10    -0.117039423865E+04    0.24758E+01   -0.81332E+00  1584   0.332E+00    0.145E+01
RMM:  11    -0.117111872965E+04   -0.72449E+00   -0.66302E+00  1584   0.297E+00    0.840E+00
RMM:  12    -0.117114153602E+04   -0.22806E-01   -0.41316E-01  1634   0.835E-01    0.562E+00
RMM:  13    -0.117063523926E+04    0.50630E+00   -0.22289E+00  1584   0.164E+00    0.292E+00
RMM:  14    -0.117059404477E+04    0.41194E-01   -0.49626E-02  1610   0.286E-01    0.107E+00
RMM:  15    -0.117058677981E+04    0.72650E-02   -0.24207E-02  1601   0.152E-01    0.583E-01
RMM:  16    -0.117058667103E+04    0.10878E-03   -0.24058E-02  1584   0.176E-01    0.356E-01
RMM:  17    -0.117058514175E+04    0.15293E-02   -0.52091E-03  1584   0.830E-02    0.233E-01
RMM:  18    -0.117058515104E+04   -0.92957E-05   -0.13945E-03  1386   0.367E-02    0.996E-02
RMM:  19    -0.117058538285E+04   -0.23181E-03   -0.22603E-04  1085   0.192E-02    0.763E-02
RMM:  20    -0.117058538283E+04    0.19223E-07   -0.17527E-04  1046   0.161E-02
   1 F= -.11777739E+04 E0= -.11777739E+04  d E =-.117777E+04  mag=     1.9993
       N       E                     dE             d eps       ncg     rms          rms(c)
DAV:   1    -0.117058314168E+04    0.22412E-02   -0.95162E-01  1764   0.144E+00    0.305E-01
RMM:   2    -0.117058480080E+04   -0.16591E-02   -0.23348E-02  1584   0.204E-01    0.291E-01
RMM:   3    -0.117058463432E+04    0.16647E-03   -0.13612E-03  1536   0.434E-02    0.273E-01
RMM:   4    -0.117058417833E+04    0.45600E-03   -0.10518E-03  1556   0.388E-02    0.166E-01
RMM:   5    -0.117058415613E+04    0.22192E-04   -0.73188E-04  1567   0.314E-02
   2 F= -.11777731E+04 E0= -.11777731E+04  d E =0.776465E-03  mag=     2.0000
       N       E                     dE             d eps       ncg     rms          rms(c)
DAV:   1    -0.117058656304E+04   -0.23847E-02   -0.29006E-01  1728   0.797E-01    0.160E-01
RMM:   2    -0.117058694776E+04   -0.38472E-03   -0.64181E-03  1584   0.111E-01    0.151E-01
RMM:   3    -0.117058684881E+04    0.98951E-04   -0.31179E-04  1160   0.225E-02
   3 F= -.11777756E+04 E0= -.11777756E+04  d E =-.166949E-02  mag=     2.0000
       N       E                     dE             d eps       ncg     rms          rms(c)
DAV:   1    -0.117058366846E+04    0.32793E-02   -0.61486E-01  1656   0.124E+00    0.240E-01
RMM:   2    -0.117058457519E+04   -0.90673E-03   -0.14781E-02  1584   0.177E-01    0.216E-01
RMM:   3    -0.117058411441E+04    0.46077E-03   -0.76878E-04  1403   0.367E-02    0.183E-01
RMM:   4    -0.117058347663E+04    0.63778E-03   -0.25950E-03  1584   0.575E-02    0.865E-02
RMM:   5    -0.117058342555E+04    0.51079E-04   -0.14357E-04  1048   0.163E-02
   4 F= -.11777720E+04 E0= -.11777720E+04  d E =0.358615E-02  mag=     2.0000
       N       E                     dE             d eps       ncg     rms          rms(c)
DAV:   1    -0.117058724407E+04   -0.37674E-02   -0.33321E-01  1728   0.916E-01    0.153E-01
RMM:   2    -0.117058783348E+04   -0.58941E-03   -0.85236E-03  1584   0.135E-01    0.137E-01
RMM:   3    -0.117058763812E+04    0.19535E-03   -0.36104E-04  1200   0.262E-02    0.117E-01
RMM:   4    -0.117058735272E+04    0.28540E-03   -0.15393E-03  1576   0.440E-02    0.538E-02
RMM:   5    -0.117058733738E+04    0.15344E-04   -0.44419E-05   989   0.989E-03
   5 F= -.11777760E+04 E0= -.11777760E+04  d E =-.442284E-03  mag=     2.0000
