       N       E                     dE             d eps       ncg     rms          rms(c)
DAV:   1     0.496241424044E+04    0.49624E+04   -0.17093E+05  1836   0.906E+02
DAV:   2    -0.458232907089E+02   -0.50082E+04   -0.45576E+04  2592   0.208E+02
DAV:   3    -0.118501835437E+04   -0.11392E+04   -0.11348E+04  2088   0.110E+02
DAV:   4    -0.123297653801E+04   -0.47958E+02   -0.47681E+02  2124   0.293E+01
DAV:   5    -0.123437574952E+04   -0.13992E+01   -0.13954E+01  2376   0.438E+00    0.620E+01
RMM:   6    -0.121951665464E+04    0.14859E+02   -0.79456E+00  1585   0.317E+00    0.508E+01
RMM:   7    -0.117728670719E+04    0.42230E+02   -0.86162E+01  1588   0.995E+00    0.290E+01
RMM:   8    -0.117102074122E+04    0.62660E+01   -0.70153E+00  1592   0.315E+00    0.234E+01
RMM:   9    -0.116688636055E+04    0.41344E+01   -0.27935E+01  1584   0.595E+00    0.119E+01
RMM:  10    -0.116747296077E+04   -0.58660E+00   -0.39555E+00  1592   0.231E+00    0.863E+00
RMM:  11    -0.116678688261E+04    0.68608E+00   -0.28554E+00  1595   0.161E+00    0.511E+00
RMM:  12    -0.116546191960E+04    0.13250E+01   -0.76156E-01  1585   0.816E-01    0.332E+00
RMM:  13    -0.116323469776E+04    0.22272E+01   -0.12858E+00  1584   0.110E+00    0.141E+00
RMM:  14    -0.116401786052E+04   -0.78316E+00   -0.73547E-02  1636   0.313E-01    0.103E+00
RMM:  15    -0.116550919958E+04   -0.14913E+01   -0.27000E-01  1609   0.449E-01    0.719E-01
RMM:  16    -0.116589022353E+04   -0.38102E+00   -0.16581E-01  1585   0.302E-01    0.450E-01
RMM:  17    -0.116605818686E+04   -0.16796E+00   -0.15656E-01  1584   0.256E-01    0.248E-01
RMM:  18    -0.116610332550E+04   -0.45139E-01   -0.11578E-01  1566   0.162E-01    0.183E-01
RMM:  19    -0.116610558739E+04   -0.22619E-02   -0.13939E-02  1608   0.510E-02    0.130E-01
RMM:  20    -0.116610551152E+04    0.75873E-04   -0.86204E-04  1249   0.230E-02
   1 F= -.11731682E+04 E0= -.11731571E+04  d E =-.117317E+04  mag=    -0.8115
       N       E                     dE             d eps       ncg     rms          rms(c)
DAV:   1    -0.116609354144E+04    0.12046E-01   -0.41188E+00  1620   0.289E+00    0.112E+00
RMM:   2    -0.116610413666E+04   -0.10595E-01   -0.11292E-01  1677   0.403E-01    0.105E+00
RMM:   3    -0.116610345905E+04    0.67761E-03   -0.68037E-03  1895   0.812E-02    0.921E-01
RMM:   4    -0.116610045773E+04    0.30013E-02   -0.69047E-03  1609   0.869E-02    0.458E-01
RMM:   5    -0.116610051219E+04   -0.54452E-04   -0.29513E-03  1600   0.567E-02    0.362E-01
RMM:   6    -0.116610263635E+04   -0.21242E-02   -0.16291E-03  1417   0.313E-02    0.263E-01
RMM:   7    -0.116609549998E+04    0.71364E-02   -0.97580E-03  1363   0.576E-02    0.129E-01
RMM:   8    -0.116608746913E+04    0.80308E-02   -0.91138E-03  1462   0.659E-02    0.933E-02
RMM:   9    -0.116610173443E+04   -0.14265E-01   -0.16624E-02  1277   0.630E-02    0.461E-02
RMM:  10    -0.116610208071E+04   -0.34628E-03   -0.12264E-03  1105   0.125E-02    0.347E-02
RMM:  11    -0.116610214403E+04   -0.63321E-04   -0.20048E-04  1046   0.818E-03
   2 F= -.11731646E+04 E0= -.11731522E+04  d E =0.362026E-02  mag=    -0.7811
       N       E                     dE             d eps       ncg     rms          rms(c)
DAV:   1    -0.116610878469E+04   -0.67040E-02   -0.13430E+00  1656   0.165E+00    0.635E-01
RMM:   2    -0.116611171212E+04   -0.29274E-02   -0.33113E-02  1657   0.222E-01    0.616E-01
RMM:   3    -0.116611134524E+04    0.36689E-03   -0.18884E-03  1544   0.429E-02    0.561E-01
RMM:   4    -0.116605858781E+04    0.52757E-01   -0.64839E-02  1583   0.168E-01    0.261E-01
RMM:   5    -0.116605483993E+04    0.37479E-02   -0.72696E-03  1537   0.619E-02    0.115E-01
RMM:   6    -0.116607545757E+04   -0.20618E-01   -0.31519E-03  1212   0.443E-02    0.117E-01
RMM:   7    -0.116611012089E+04   -0.34663E-01   -0.51284E-02  1325   0.103E-01    0.825E-02
RMM:   8    -0.116611112808E+04   -0.10072E-02   -0.55248E-03  1230   0.269E-02    0.491E-02
RMM:   9    -0.116611108332E+04    0.44765E-04   -0.41637E-04  1117   0.143E-02
   3 F= -.11731737E+04 E0= -.11731618E+04  d E =-.546036E-02  mag=    -0.7937
       N       E                     dE             d eps       ncg     rms          rms(c)
DAV:   1    -0.116610978317E+04    0.13449E-02   -0.76845E-01  1764   0.136E+00    0.371E-01
RMM:   2    -0.116611137916E+04   -0.15960E-02   -0.19898E-02  1587   0.200E-01    0.326E-01
RMM:   3    -0.116611081181E+04    0.56735E-03   -0.11003E-03  1596   0.410E-02    0.260E-01
RMM:   4    -0.116611026676E+04    0.54505E-03   -0.30733E-03  1586   0.606E-02    0.123E-01
RMM:   5    -0.116611052873E+04   -0.26197E-03   -0.23728E-04  1109   0.175E-02    0.983E-02
RMM:   6    -0.116610834977E+04    0.21790E-02   -0.28559E-03  1228   0.308E-02    0.637E-02
RMM:   7    -0.116611025868E+04   -0.19089E-02   -0.11317E-03  1135   0.205E-02    0.523E-02
RMM:   8    -0.116611047045E+04   -0.21177E-03   -0.41477E-04  1110   0.148E-02    0.181E-02
RMM:   9    -0.116611048629E+04   -0.15845E-04   -0.50949E-05  1039   0.753E-03
   4 F= -.11731729E+04 E0= -.11731608E+04  d E =0.700682E-03  mag=    -0.7886
       N       E                     dE             d eps       ncg     rms          rms(c)
DAV:   1    -0.116611207904E+04   -0.16086E-02   -0.24356E-01  1764   0.764E-01    0.207E-01
RMM:   2    -0.116611258159E+04   -0.50255E-03   -0.62983E-03  1588   0.112E-01    0.184E-01
RMM:   3    -0.116611234107E+04    0.24052E-03   -0.35527E-04  1192   0.234E-02    0.148E-01
RMM:   4    -0.116611028791E+04    0.20532E-02   -0.32536E-03  1562   0.476E-02    0.660E-02
RMM:   5    -0.116611208660E+04   -0.17987E-02   -0.12382E-03  1160   0.235E-02    0.468E-02
RMM:   6    -0.116611230156E+04   -0.21495E-03   -0.27437E-04  1070   0.984E-03    0.436E-02
RMM:   7    -0.116611228128E+04    0.20274E-04   -0.10410E-04  1048   0.817E-03
   5 F= -.11731748E+04 E0= -.11731628E+04  d E =-.115576E-02  mag=    -0.7916
       N       E                     dE             d eps       ncg     rms          rms(c)
DAV:   1    -0.116611288288E+04   -0.58133E-03   -0.23466E-01  1728   0.780E-01    0.156E-01
RMM:   2    -0.116611312163E+04   -0.23875E-03   -0.55209E-03  1584   0.109E-01    0.133E-01
RMM:   3    -0.116611298522E+04    0.13642E-03   -0.25149E-04  1154   0.215E-02    0.120E-01
RMM:   4    -0.116611266004E+04    0.32518E-03   -0.10968E-03  1575   0.366E-02    0.615E-02
RMM:   5    -0.116611266254E+04   -0.25012E-05   -0.16771E-04  1082   0.158E-02
   6 F= -.11731753E+04 E0= -.11731635E+04  d E =-.490988E-03  mag=    -0.7986
       N       E                     dE             d eps       ncg     rms          rms(c)
DAV:   1    -0.116611283988E+04   -0.17985E-03   -0.21399E-02  1692   0.235E-01    0.431E-02
RMM:   2    -0.116611283322E+04    0.66597E-05   -0.40368E-04  1196   0.299E-02
   7 F= -.11731754E+04 E0= -.11731635E+04  d E =-.628593E-03  mag=    -0.7979
