       N       E                     dE             d eps       ncg     rms          rms(c)
DAV:   1     0.516680278271E+04    0.51668E+04   -0.17841E+05  1760   0.100E+03
DAV:   2     0.103449125361E+03   -0.50634E+04   -0.46334E+04  2304   0.233E+02
DAV:   3    -0.118324080646E+04   -0.12867E+04   -0.12710E+04  1928   0.125E+02
DAV:   4    -0.124608475632E+04   -0.62844E+02   -0.62131E+02  1856   0.355E+01
DAV:   5    -0.124766639411E+04   -0.15816E+01   -0.15715E+01  2096   0.561E+00    0.102E+02
RMM:   6    -0.124336824551E+04    0.42981E+01   -0.17624E+02  1775   0.191E+01    0.981E+01
RMM:   7    -0.122482525305E+04    0.18543E+02   -0.16715E+01  1509   0.668E+00    0.704E+01
RMM:   8    -0.119369059082E+04    0.31135E+02   -0.27875E+01  1501   0.843E+00    0.434E+01
RMM:   9    -0.118625373846E+04    0.74369E+01   -0.55725E+00  1479   0.362E+00    0.359E+01
RMM:  10    -0.118882525999E+04   -0.25715E+01   -0.31799E+01  1789   0.734E+00    0.840E+01
RMM:  11    -0.116562275594E+04    0.23203E+02   -0.31124E+01  1737   0.979E+00    0.217E+01
RMM:  12    -0.116703388941E+04   -0.14111E+01   -0.97114E+00  1497   0.449E+00    0.161E+01
RMM:  13    -0.116969012273E+04   -0.26562E+01   -0.40090E+00  1556   0.353E+00    0.174E+01
RMM:  14    -0.116872655108E+04    0.96357E+00   -0.84030E-01  1542   0.141E+00    0.152E+01
RMM:  15    -0.116604023369E+04    0.26863E+01   -0.29487E+00  1630   0.202E+00    0.130E+01
RMM:  16    -0.116619437919E+04   -0.15415E+00   -0.19183E-01  1521   0.645E-01    0.133E+01
RMM:  17    -0.116614869681E+04    0.45682E-01   -0.34962E-02  1633   0.286E-01    0.131E+01
RMM:  18    -0.116645328440E+04   -0.30459E+00   -0.51498E-02  1387   0.341E-01    0.135E+01
RMM:  19    -0.116645854006E+04   -0.52557E-02   -0.10314E-02  1240   0.131E-01    0.136E+01
RMM:  20    -0.116828292899E+04   -0.18244E+01   -0.12269E+00  2171   0.126E+00    0.145E+01
RMM:  21    -0.117021992179E+04   -0.19370E+01   -0.96869E-01  2297   0.109E+00    0.170E+01
RMM:  22    -0.116450591225E+04    0.57140E+01   -0.11388E+01  2488   0.372E+00    0.811E+00
RMM:  23    -0.116517578573E+04   -0.66987E+00   -0.44948E+00  2451   0.176E+00    0.185E+01
RMM:  24    -0.116516287545E+04    0.12910E-01   -0.25366E-01  1822   0.593E-01    0.186E+01
RMM:  25    -0.116920861406E+04   -0.40457E+01   -0.39280E-01  2058   0.543E-01    0.551E+01
RMM:  26    -0.116627493724E+04    0.29337E+01   -0.13787E-01  1714   0.652E-01    0.380E+01
RMM:  27    -0.116597411855E+04    0.30082E+00   -0.22465E-02  1294   0.319E-01    0.363E+01
RMM:  28    -0.116592570558E+04    0.48413E-01   -0.92109E-03  1114   0.158E-01    0.370E+01
RMM:  29    -0.116738031578E+04   -0.14546E+01   -0.37805E-02  1401   0.207E-01    0.468E+01
RMM:  30    -0.116755451708E+04   -0.17420E+00   -0.21362E-02  1277   0.282E-01    0.466E+01
RMM:  31    -0.116763523101E+04   -0.80714E-01   -0.21579E-03  1015   0.843E-02    0.468E+01
RMM:  32    -0.116824435466E+04   -0.60912E+00   -0.12671E-02  1243   0.141E-01    0.491E+01
RMM:  33    -0.116702757266E+04    0.12168E+01   -0.38830E-02  1593   0.279E-01    0.374E+01
RMM:  34    -0.116697484320E+04    0.52729E-01   -0.28552E-02  1482   0.345E-01    0.366E+01
RMM:  35    -0.116375334754E+04    0.32215E+01   -0.12058E+00  2307   0.103E+00    0.109E+01
RMM:  36    -0.116352093409E+04    0.23241E+00   -0.20196E-01  1948   0.841E-01    0.994E+00
RMM:  37    -0.116338349606E+04    0.13744E+00   -0.10605E-01  1832   0.497E-01    0.136E+01
RMM:  38    -0.116362740150E+04   -0.24391E+00   -0.25966E-02  1373   0.350E-01    0.136E+01
RMM:  39    -0.116343563178E+04    0.19177E+00   -0.14913E-02  1248   0.172E-01    0.113E+01
RMM:  40    -0.116339524624E+04    0.40386E-01   -0.29127E-03  1031   0.106E-01    0.111E+01
RMM:  41    -0.116321295911E+04    0.18229E+00   -0.13415E-02  1258   0.146E-01    0.112E+01
RMM:  42    -0.116324305178E+04   -0.30093E-01   -0.16668E-03   991   0.766E-02    0.112E+01
RMM:  43    -0.116322351199E+04    0.19540E-01   -0.72739E-04   936   0.393E-02    0.108E+01
RMM:  44    -0.116328241517E+04   -0.58903E-01   -0.71599E-04   939   0.431E-02    0.106E+01
RMM:  45    -0.116319158080E+04    0.90834E-01   -0.11327E-02  1284   0.201E-01    0.120E+01
RMM:  46    -0.116341736508E+04   -0.22578E+00   -0.11793E-02  1327   0.173E-01    0.125E+01
RMM:  47    -0.116343504567E+04   -0.17681E-01   -0.21729E-03  1005   0.855E-02    0.124E+01
RMM:  48    -0.116336210639E+04    0.72939E-01   -0.54338E-03  1108   0.108E-01    0.107E+01
RMM:  49    -0.116346137590E+04   -0.99270E-01   -0.14810E-02  1530   0.198E-01    0.126E+01
RMM:  50    -0.116345573686E+04    0.56390E-02   -0.34788E-03  1065   0.138E-01    0.122E+01
RMM:  51    -0.116309545272E+04    0.36028E+00   -0.24247E-01  1885   0.500E-01    0.104E+01
RMM:  52    -0.116312803640E+04   -0.32584E-01   -0.43086E-02  1587   0.380E-01    0.956E+00
RMM:  53    -0.116313058595E+04   -0.25496E-02   -0.52659E-02  1857   0.356E-01    0.916E+00
RMM:  54    -0.116306421604E+04    0.66370E-01   -0.27879E-02  1685   0.221E-01    0.907E+00
RMM:  55    -0.116301020459E+04    0.54011E-01   -0.58794E-03  1140   0.118E-01    0.931E+00
RMM:  56    -0.116280779262E+04    0.20241E+00   -0.18377E-02  1236   0.184E-01    0.983E+00
RMM:  57    -0.116293053975E+04   -0.12275E+00   -0.23819E-02  1393   0.199E-01    0.947E+00
RMM:  58    -0.116298799166E+04   -0.57452E-01   -0.47617E-03  1083   0.855E-02    0.927E+00
RMM:  59    -0.116298032074E+04    0.76709E-02   -0.11843E-02  1271   0.113E-01    0.928E+00
RMM:  60    -0.116299188945E+04   -0.11569E-01   -0.93528E-04   949   0.507E-02    0.928E+00
RMM:  61    -0.116330845535E+04   -0.31657E+00   -0.23047E-01  2205   0.584E-01    0.806E+00
RMM:  62    -0.116334558004E+04   -0.37125E-01   -0.25880E-02  1625   0.201E-01    0.755E+00
RMM:  63    -0.116347922504E+04   -0.13365E+00   -0.47977E-02  1799   0.310E-01    0.632E+00
RMM:  64    -0.116358146039E+04   -0.10224E+00   -0.12468E-02  1277   0.169E-01    0.602E+00
RMM:  65    -0.116358758096E+04   -0.61206E-02   -0.33148E-03  1055   0.897E-02    0.613E+00
RMM:  66    -0.116378341676E+04   -0.19584E+00   -0.66042E-01  2293   0.811E-01    0.758E+00
RMM:  67    -0.116397710189E+04   -0.19369E+00   -0.83932E-02  1975   0.396E-01    0.957E+00
RMM:  68    -0.116424128090E+04   -0.26418E+00   -0.71314E-02  1898   0.299E-01    0.138E+01
RMM:  69    -0.116414666060E+04    0.94620E-01   -0.14808E-02  1249   0.212E-01    0.121E+01
RMM:  70    -0.116416053868E+04   -0.13878E-01   -0.12844E-02  1311   0.143E-01    0.125E+01
RMM:  71    -0.116378145238E+04    0.37909E+00   -0.19766E-01  2326   0.580E-01    0.991E+00
RMM:  72    -0.116376423304E+04    0.17219E-01   -0.21921E-02  1498   0.200E-01    0.965E+00
RMM:  73    -0.116343925359E+04    0.32498E+00   -0.91993E-02  1903   0.369E-01    0.645E+00
RMM:  74    -0.116339416181E+04    0.45092E-01   -0.31193E-02  1666   0.212E-01    0.562E+00
RMM:  75    -0.116337302630E+04    0.21136E-01   -0.53764E-03  1104   0.155E-01    0.524E+00
RMM:  76    -0.116386017842E+04   -0.48715E+00   -0.38830E-01  2222   0.914E-01    0.578E+00
RMM:  77    -0.116392505692E+04   -0.64878E-01   -0.44639E-02  1650   0.337E-01    0.598E+00
RMM:  78    -0.116396851351E+04   -0.43457E-01   -0.42560E-02  1846   0.250E-01    0.578E+00
RMM:  79    -0.116399646103E+04   -0.27948E-01   -0.22515E-02  1406   0.221E-01    0.540E+00
RMM:  80    -0.116386191563E+04    0.13455E+00   -0.43221E-02  1766   0.239E-01    0.490E+00
RMM:  81    -0.116379352267E+04    0.68393E-01   -0.35064E-02  1564   0.204E-01    0.449E+00
RMM:  82    -0.116376680403E+04    0.26719E-01   -0.15893E-02  1498   0.171E-01    0.463E+00
RMM:  83    -0.116377160329E+04   -0.47993E-02   -0.28571E-03  1029   0.841E-02    0.472E+00
RMM:  84    -0.116376740340E+04    0.41999E-02   -0.44861E-03  1078   0.100E-01    0.493E+00
RMM:  85    -0.116376792209E+04   -0.51868E-03   -0.69287E-04   934   0.537E-02
   1 F= -.11707999E+04 E0= -.11707999E+04  d E =-.117080E+04  mag=     0.4709
       N       E                     dE             d eps       ncg     rms          rms(c)
DAV:   1    -0.116378393220E+04   -0.16529E-01   -0.38462E-01  1656   0.208E+00    0.475E+00
RMM:   2    -0.116377402284E+04    0.99094E-02   -0.13790E-01  1638   0.439E-01    0.372E+00
RMM:   3    -0.116379405309E+04   -0.20030E-01   -0.51356E-02  1507   0.259E-01    0.307E+00
RMM:   4    -0.116382154054E+04   -0.27487E-01   -0.30992E-02  1478   0.214E-01    0.313E+00
RMM:   5    -0.116383610680E+04   -0.14566E-01   -0.31372E-02  1248   0.158E-01    0.223E+00
RMM:   6    -0.116387984192E+04   -0.43735E-01   -0.50346E-02  1318   0.179E-01    0.514E+00
RMM:   7    -0.116385646037E+04    0.23382E-01   -0.11306E-02  1170   0.154E-01    0.361E+00
RMM:   8    -0.116385426700E+04    0.21934E-02   -0.15867E-02  1297   0.134E-01    0.845E-01
RMM:   9    -0.116386664054E+04   -0.12374E-01   -0.32211E-03  1039   0.893E-02    0.103E+00
RMM:  10    -0.116386612299E+04    0.51754E-03   -0.48682E-03  1084   0.819E-02
   2 F= -.11708978E+04 E0= -.11708839E+04  d E =-.979551E-01  mag=     1.8049
       N       E                     dE             d eps       ncg     rms          rms(c)
DAV:   1    -0.116386777799E+04   -0.11375E-02   -0.90070E-04  1256   0.643E-02    0.869E-01
RMM:   2    -0.116387029982E+04   -0.25218E-02   -0.32138E-03   966   0.636E-02    0.180E+00
RMM:   3    -0.116386537887E+04    0.49210E-02   -0.14946E-03   888   0.682E-02    0.485E-01
RMM:   4    -0.116386750862E+04   -0.21297E-02   -0.26878E-04   781   0.337E-02    0.449E-01
RMM:   5    -0.116386705383E+04    0.45478E-03   -0.84501E-05   636   0.184E-02
   3 F= -.11708987E+04 E0= -.11708855E+04  d E =-.988888E-01  mag=     1.7775
       N       E                     dE             d eps       ncg     rms          rms(c)
DAV:   1    -0.116386794360E+04   -0.43499E-03   -0.28159E-02  1768   0.562E-01    0.256E-01
RMM:   2    -0.116386915739E+04   -0.12138E-02   -0.44290E-03  1009   0.974E-02    0.563E-01
RMM:   3    -0.116386804779E+04    0.11096E-02   -0.50120E-04   865   0.378E-02    0.326E-01
RMM:   4    -0.116386853247E+04   -0.48468E-03   -0.12222E-04   507   0.174E-02
   4 F= -.11709003E+04 E0= -.11708869E+04  d E =-.100432E+00  mag=     1.7796
       N       E                     dE             d eps       ncg     rms          rms(c)
DAV:   1    -0.116386926462E+04   -0.12168E-02   -0.50521E-02  1736   0.755E-01    0.361E-01
RMM:   2    -0.116387111792E+04   -0.18533E-02   -0.81533E-03  1070   0.131E-01    0.917E-01
RMM:   3    -0.116386856731E+04    0.25506E-02   -0.10551E-03   915   0.569E-02    0.332E-01
RMM:   4    -0.116386977820E+04   -0.12109E-02   -0.28803E-04   749   0.246E-02    0.319E-01
RMM:   5    -0.116386983596E+04   -0.57754E-04   -0.48459E-05   473   0.142E-02
   5 F= -.11709017E+04 E0= -.11708883E+04  d E =-.101824E+00  mag=     1.7850
       N       E                     dE             d eps       ncg     rms          rms(c)
DAV:   1    -0.116386995532E+04   -0.17712E-03   -0.12993E-02  1696   0.378E-01    0.269E-01
RMM:   2    -0.116387079630E+04   -0.84098E-03   -0.20985E-03   948   0.683E-02
   6 F= -.11709027E+04 E0= -.11708894E+04  d E =-.102829E+00  mag=     1.7875
       N       E                     dE             d eps       ncg     rms          rms(c)
DAV:   1    -0.116387030380E+04   -0.34848E-03   -0.36833E-03  1344   0.193E-01    0.287E-01
RMM:   2    -0.116387067030E+04   -0.36650E-03   -0.61385E-04   895   0.439E-02
   7 F= -.11709026E+04 E0= -.11708889E+04  d E =-.102725E+00  mag=     1.7858
       N       E                     dE             d eps       ncg     rms          rms(c)
DAV:   1    -0.116387067960E+04   -0.37579E-03   -0.78259E-04   976   0.103E-01    0.294E-01
RMM:   2    -0.116387059218E+04    0.87413E-04   -0.41096E-04   780   0.330E-02
   8 F= -.11709025E+04 E0= -.11708888E+04  d E =-.102659E+00  mag=     1.7843
       N       E                     dE             d eps       ncg     rms          rms(c)
DAV:   1    -0.116387050134E+04    0.17825E-03   -0.25913E-04   896   0.566E-02    0.301E-01
RMM:   2    -0.116387045697E+04    0.44373E-04   -0.18447E-04   594   0.230E-02
   9 F= -.11709024E+04 E0= -.11708887E+04  d E =-.102529E+00  mag=     1.7832
       N       E                     dE             d eps       ncg     rms          rms(c)
DAV:   1    -0.116387033113E+04    0.17021E-03   -0.12586E-04   864   0.406E-02    0.309E-01
RMM:   2    -0.116387034968E+04   -0.18551E-04   -0.13128E-04   457   0.169E-02
  10 F= -.11709023E+04 E0= -.11708886E+04  d E =-.102425E+00  mag=     1.7818
       N       E                     dE             d eps       ncg     rms          rms(c)
DAV:   1    -0.116387015266E+04    0.17847E-03   -0.72566E-05   864   0.251E-02    0.318E-01
RMM:   2    -0.116387028611E+04   -0.13345E-03   -0.99655E-05   309   0.125E-02
  11 F= -.11709022E+04 E0= -.11708887E+04  d E =-.102363E+00  mag=     1.7895
       N       E                     dE             d eps       ncg     rms          rms(c)
DAV:   1    -0.116386705956E+04    0.30931E-02   -0.65150E-03  1040   0.691E-02    0.486E-01
RMM:   2    -0.116387070191E+04   -0.36423E-02   -0.95720E-04   768   0.400E-02    0.104E+00
RMM:   3    -0.116386960572E+04    0.10962E-02   -0.40962E-04   782   0.414E-02    0.298E-01
RMM:   4    -0.116386953986E+04    0.65856E-04   -0.27141E-04   721   0.258E-02
  12 F= -.11709015E+04 E0= -.11708879E+04  d E =-.101617E+00  mag=     1.7834
       N       E                     dE             d eps       ncg     rms          rms(c)
DAV:   1    -0.116386894049E+04    0.66523E-03   -0.24620E-03  1008   0.423E-02    0.291E-01
RMM:   2    -0.116387051219E+04   -0.15717E-02   -0.26057E-04   709   0.286E-02    0.376E-01
RMM:   3    -0.116387054379E+04   -0.31603E-04   -0.94355E-05   615   0.190E-02
  13 F= -.11709025E+04 E0= -.11708890E+04  d E =-.102621E+00  mag=     1.7808
       N       E                     dE             d eps       ncg     rms          rms(c)
DAV:   1    -0.116387042678E+04    0.85409E-04   -0.34773E-05   896   0.115E-02    0.269E-01
RMM:   2    -0.116387048850E+04   -0.61725E-04   -0.60747E-05   305   0.120E-02
  14 F= -.11709024E+04 E0= -.11708887E+04  d E =-.102566E+00  mag=     1.7797
       N       E                     dE             d eps       ncg     rms          rms(c)
DAV:   1    -0.116387040697E+04    0.19805E-04   -0.85136E-05   904   0.288E-02    0.264E-01
RMM:   2    -0.116387041329E+04   -0.63176E-05   -0.74812E-05   474   0.147E-02
  15 F= -.11709023E+04 E0= -.11708887E+04  d E =-.102491E+00  mag=     1.7794
       N       E                     dE             d eps       ncg     rms          rms(c)
DAV:   1    -0.116387028116E+04    0.12582E-03   -0.66330E-05   880   0.209E-02    0.269E-01
RMM:   2    -0.116387033774E+04   -0.56587E-04   -0.63600E-05   300   0.113E-02
  16 F= -.11709023E+04 E0= -.11708887E+04  d E =-.102416E+00  mag=     1.7773
       N       E                     dE             d eps       ncg     rms          rms(c)
DAV:   1    -0.116386991653E+04    0.36463E-03   -0.80342E-05   888   0.132E-02    0.285E-01
RMM:   2    -0.116387036644E+04   -0.44991E-03   -0.87934E-05   425   0.142E-02
  17 F= -.11709023E+04 E0= -.11708890E+04  d E =-.102444E+00  mag=     1.7816
       N       E                     dE             d eps       ncg     rms          rms(c)
DAV:   1    -0.116387111913E+04   -0.12026E-02   -0.46378E-02  1576   0.657E-01    0.355E-01
RMM:   2    -0.116387192059E+04   -0.80146E-03   -0.57182E-03  1023   0.122E-01
  18 F= -.11709039E+04 E0= -.11708901E+04  d E =-.156477E-02  mag=     1.7814
       N       E                     dE             d eps       ncg     rms          rms(c)
DAV:   1    -0.116387210909E+04   -0.98996E-03   -0.75749E-02  1584   0.824E-01    0.449E-01
RMM:   2    -0.116387275955E+04   -0.65046E-03   -0.10230E-02  1209   0.159E-01    0.457E-01
RMM:   3    -0.116387246502E+04    0.29453E-03   -0.14844E-03   915   0.577E-02
  19 F= -.11709044E+04 E0= -.11708909E+04  d E =-.213098E-02  mag=     1.7812
       N       E                     dE             d eps       ncg     rms          rms(c)
DAV:   1    -0.116387386016E+04   -0.11006E-02   -0.38998E-02  1592   0.621E-01    0.610E-01
RMM:   2    -0.116387528700E+04   -0.14268E-02   -0.61492E-03  1052   0.117E-01    0.106E+00
RMM:   3    -0.116387133961E+04    0.39474E-02   -0.10824E-03   919   0.584E-02    0.564E-01
RMM:   4    -0.116387273363E+04   -0.13940E-02   -0.18085E-04   693   0.220E-02    0.564E-01
RMM:   5    -0.116387252731E+04    0.20631E-03   -0.46982E-05   467   0.136E-02
  20 F= -.11709046E+04 E0= -.11708911E+04  d E =-.150764E-03  mag=     1.7871
       N       E                     dE             d eps       ncg     rms          rms(c)
DAV:   1    -0.116387505036E+04   -0.23167E-02   -0.35687E-01  1584   0.187E+00    0.134E+00
RMM:   2    -0.116388728251E+04   -0.12232E-01   -0.53846E-02  1635   0.345E-01    0.284E+00
RMM:   3    -0.116386776582E+04    0.19517E-01   -0.90134E-03  1099   0.164E-01    0.838E-01
RMM:   4    -0.116387414598E+04   -0.63802E-02   -0.22163E-03   993   0.729E-02    0.789E-01
RMM:   5    -0.116387214266E+04    0.20033E-02   -0.53945E-03  1135   0.982E-02    0.720E-01
RMM:   6    -0.116387100505E+04    0.11376E-02   -0.24610E-03   944   0.659E-02    0.779E-01
RMM:   7    -0.116385504090E+04    0.15964E-01   -0.12219E-02  1079   0.115E-01    0.105E+00
RMM:   8    -0.116385853351E+04   -0.34926E-02   -0.33001E-03   958   0.597E-02    0.886E-01
RMM:   9    -0.116386107656E+04   -0.25431E-02   -0.15968E-03   892   0.414E-02    0.800E-01
RMM:  10    -0.116383052684E+04    0.30550E-01   -0.52044E-02  1182   0.188E-01    0.104E+00
RMM:  11    -0.116386089583E+04   -0.30369E-01   -0.77952E-03  1022   0.129E-01    0.870E-01
RMM:  12    -0.116385871352E+04    0.21823E-02   -0.10510E-02   999   0.103E-01    0.643E-01
RMM:  13    -0.116384992798E+04    0.87855E-02   -0.30244E-02  1074   0.141E-01    0.492E-01
RMM:  14    -0.116383998662E+04    0.99414E-02   -0.42779E-02  1103   0.150E-01    0.601E-01
RMM:  15    -0.116386074938E+04   -0.20763E-01   -0.58144E-03   978   0.104E-01    0.622E-01
RMM:  16    -0.116386251225E+04   -0.17629E-02   -0.38112E-04   723   0.250E-02    0.597E-01
RMM:  17    -0.116386218052E+04    0.33173E-03   -0.50697E-03   857   0.569E-02
  21 F= -.11708945E+04 E0= -.11708811E+04  d E =0.991201E-02  mag=     1.7678
       N       E                     dE             d eps       ncg     rms          rms(c)
DAV:   1    -0.116386393623E+04   -0.14240E-02   -0.12219E-01  1592   0.964E-01    0.359E-01
RMM:   2    -0.116387283380E+04   -0.88976E-02   -0.15406E-02  1180   0.183E-01    0.124E+00
RMM:   3    -0.116386844195E+04    0.43918E-02   -0.22093E-03   941   0.766E-02    0.575E-01
RMM:   4    -0.116387053455E+04   -0.20926E-02   -0.59134E-04   855   0.329E-02    0.504E-01
RMM:   5    -0.116387124850E+04   -0.71394E-03   -0.41321E-04   856   0.303E-02
  22 F= -.11709034E+04 E0= -.11708896E+04  d E =0.991974E-03  mag=     1.7931
       N       E                     dE             d eps       ncg     rms          rms(c)
DAV:   1    -0.116387239887E+04   -0.18643E-02   -0.15691E-02  1608   0.405E-01    0.227E-01
RMM:   2    -0.116387283773E+04   -0.43886E-03   -0.24233E-03   953   0.725E-02
  23 F= -.11709050E+04 E0= -.11708912E+04  d E =-.535078E-03  mag=     1.7932
       N       E                     dE             d eps       ncg     rms          rms(c)
DAV:   1    -0.116387317850E+04   -0.77962E-03   -0.72178E-03  1552   0.250E-01    0.263E-01
RMM:   2    -0.116387326406E+04   -0.85560E-04   -0.88801E-04   913   0.491E-02
  24 F= -.11709054E+04 E0= -.11708916E+04  d E =-.924188E-03  mag=     1.7960
       N       E                     dE             d eps       ncg     rms          rms(c)
DAV:   1    -0.116387343141E+04   -0.25291E-03   -0.15717E-03   960   0.130E-01    0.273E-01
RMM:   2    -0.116387337593E+04    0.55477E-04   -0.54428E-04   830   0.376E-02
  25 F= -.11709054E+04 E0= -.11708917E+04  d E =-.101764E-02  mag=     1.7965
       N       E                     dE             d eps       ncg     rms          rms(c)
DAV:   1    -0.116387327636E+04    0.15505E-03   -0.45699E-04   912   0.658E-02    0.299E-01
RMM:   2    -0.116387324207E+04    0.34292E-04   -0.23757E-04   737   0.240E-02
  26 F= -.11709053E+04 E0= -.11708918E+04  d E =-.874610E-03  mag=     1.7988
       N       E                     dE             d eps       ncg     rms          rms(c)
DAV:   1    -0.116387326529E+04    0.11072E-04   -0.15819E-04   896   0.494E-02    0.301E-01
RMM:   2    -0.116387311201E+04    0.15328E-03   -0.14232E-04   570   0.204E-02
  27 F= -.11709052E+04 E0= -.11708917E+04  d E =-.739982E-03  mag=     1.8008
       N       E                     dE             d eps       ncg     rms          rms(c)
DAV:   1    -0.116387304192E+04    0.22336E-03   -0.10469E-04   880   0.407E-02    0.292E-01
RMM:   2    -0.116387296299E+04    0.78937E-04   -0.10800E-04   458   0.161E-02
  28 F= -.11709050E+04 E0= -.11708915E+04  d E =-.588680E-03  mag=     1.8018
       N       E                     dE             d eps       ncg     rms          rms(c)
DAV:   1    -0.116387287823E+04    0.16369E-03   -0.71828E-05   872   0.247E-02    0.293E-01
RMM:   2    -0.116387285570E+04    0.22535E-04   -0.83595E-05   299   0.120E-02
  29 F= -.11709049E+04 E0= -.11708913E+04  d E =-.480250E-03  mag=     1.8056
       N       E                     dE             d eps       ncg     rms          rms(c)
DAV:   1    -0.116387216455E+04    0.71369E-03   -0.82554E-04   920   0.297E-02    0.307E-01
RMM:   2    -0.116387298609E+04   -0.82155E-03   -0.12830E-04   469   0.178E-02
  30 F= -.11709050E+04 E0= -.11708912E+04  d E =-.610075E-03  mag=     1.8017
       N       E                     dE             d eps       ncg     rms          rms(c)
DAV:   1    -0.116387223566E+04   -0.71115E-04   -0.74323E-05   920   0.328E-02    0.298E-01
RMM:   2    -0.116387275121E+04   -0.51555E-03   -0.77641E-05   442   0.130E-02
  31 F= -.11709048E+04 E0= -.11708912E+04  d E =-.374907E-03  mag=     1.8033
       N       E                     dE             d eps       ncg     rms          rms(c)
DAV:   1    -0.116387261091E+04   -0.37525E-03   -0.31908E-05   888   0.112E-02    0.325E-01
RMM:   2    -0.116387286614E+04   -0.25522E-03   -0.11519E-04   372   0.140E-02
  32 F= -.11709049E+04 E0= -.11708911E+04  d E =-.489692E-03  mag=     1.7995
       N       E                     dE             d eps       ncg     rms          rms(c)
DAV:   1    -0.116387216195E+04    0.44896E-03   -0.89919E-05   912   0.321E-02    0.321E-01
RMM:   2    -0.116387264976E+04   -0.48781E-03   -0.96609E-05   467   0.136E-02
  33 F= -.11709047E+04 E0= -.11708911E+04  d E =-.273242E-03  mag=     1.8165
       N       E                     dE             d eps       ncg     rms          rms(c)
DAV:   1    -0.116386667833E+04    0.54836E-02   -0.24676E-02  1128   0.118E-01    0.375E-01
RMM:   2    -0.116387347157E+04   -0.67932E-02   -0.14107E-03   881   0.524E-02    0.876E-01
RMM:   3    -0.116387076249E+04    0.27091E-02   -0.35452E-04   733   0.362E-02    0.251E-01
RMM:   4    -0.116387264414E+04   -0.18817E-02   -0.88394E-05   521   0.165E-02    0.245E-01
RMM:   5    -0.116387285018E+04   -0.20603E-03   -0.36359E-05   480   0.136E-02
  34 F= -.11709049E+04 E0= -.11708912E+04  d E =-.473629E-03  mag=     1.7960
       N       E                     dE             d eps       ncg     rms          rms(c)
DAV:   1    -0.116387283499E+04   -0.19085E-03   -0.11834E-03   976   0.457E-02    0.369E-01
RMM:   2    -0.116387309758E+04   -0.26259E-03   -0.54557E-04   783   0.254E-02
  35 F= -.11709052E+04 E0= -.11708923E+04  d E =-.721012E-03  mag=     1.8027
       N       E                     dE             d eps       ncg     rms          rms(c)
DAV:   1    -0.116387213501E+04    0.69998E-03   -0.27044E-04   976   0.798E-02    0.223E-01
RMM:   2    -0.116387266342E+04   -0.52842E-03   -0.16622E-04   558   0.186E-02
  36 F= -.11709047E+04 E0= -.11708910E+04  d E =-.286848E-03  mag=     1.7999
       N       E                     dE             d eps       ncg     rms          rms(c)
DAV:   1    -0.116387267436E+04   -0.53935E-03   -0.50583E-02  1600   0.810E-01    0.429E-01
RMM:   2    -0.116387419623E+04   -0.15219E-02   -0.97852E-03  1066   0.131E-01    0.104E+00
RMM:   3    -0.116387245704E+04    0.17392E-02   -0.14455E-03   922   0.638E-02    0.269E-01
RMM:   4    -0.116387345229E+04   -0.99525E-03   -0.25661E-04   745   0.264E-02
  37 F= -.11709056E+04 E0= -.11708920E+04  d E =-.840789E-03  mag=     1.8062
       N       E                     dE             d eps       ncg     rms          rms(c)
DAV:   1    -0.116387315437E+04   -0.69733E-03   -0.10161E-02  1528   0.352E-01    0.252E-01
RMM:   2    -0.116387360518E+04   -0.45080E-03   -0.18480E-03   927   0.597E-02
  38 F= -.11709057E+04 E0= -.11708922E+04  d E =-.101596E-02  mag=     1.8070
