       N       E                     dE             d eps       ncg     rms          rms(c)
DAV:   1     0.496006844743E+04    0.49601E+04   -0.17622E+05  1872   0.922E+02
DAV:   2    -0.422582907427E+02   -0.50023E+04   -0.45782E+04  2520   0.209E+02
DAV:   3    -0.119249654826E+04   -0.11502E+04   -0.11445E+04  2196   0.111E+02
DAV:   4    -0.123717026385E+04   -0.44674E+02   -0.44382E+02  2016   0.279E+01
DAV:   5    -0.123825575891E+04   -0.10855E+01   -0.10824E+01  2304   0.399E+00    0.694E+01
RMM:   6    -0.122332483977E+04    0.14931E+02   -0.40079E+01  1597   0.613E+00    0.622E+01
RMM:   7    -0.120923522873E+04    0.14090E+02   -0.54965E+00  1584   0.263E+00    0.458E+01
RMM:   8    -0.118952182541E+04    0.19713E+02   -0.15744E+01  1584   0.465E+00    0.337E+01
RMM:   9    -0.117144062638E+04    0.18081E+02   -0.27388E+01  1584   0.602E+00    0.222E+01
RMM:  10    -0.116852806065E+04    0.29126E+01   -0.16528E+01  1584   0.466E+00    0.138E+01
RMM:  11    -0.116981612153E+04   -0.12881E+01   -0.44260E+00  1588   0.245E+00    0.838E+00
RMM:  12    -0.116940211272E+04    0.41401E+00   -0.39087E-01  1615   0.750E-01    0.588E+00
RMM:  13    -0.116895115812E+04    0.45095E+00   -0.16148E+00  1584   0.140E+00    0.244E+00
RMM:  14    -0.116888690487E+04    0.64253E-01   -0.14519E-01  1587   0.456E-01    0.125E+00
RMM:  15    -0.116888123165E+04    0.56732E-02   -0.46215E-02  1591   0.223E-01    0.868E-01
RMM:  16    -0.116888016805E+04    0.10636E-02   -0.57046E-03  1626   0.937E-02    0.599E-01
RMM:  17    -0.116887873650E+04    0.14315E-02   -0.50117E-03  1555   0.725E-02    0.303E-01
RMM:  18    -0.116887900263E+04   -0.26612E-03   -0.14742E-03  1588   0.443E-02    0.193E-01
RMM:  19    -0.116887910018E+04   -0.97553E-04   -0.66746E-04  1444   0.303E-02
   1 F= -.11760125E+04 E0= -.11760125E+04  d E =-.117601E+04  mag=    -0.0108
       N       E                     dE             d eps       ncg     rms          rms(c)
DAV:   1    -0.116883463934E+04    0.44363E-01   -0.86846E+00  1584   0.462E+00    0.197E+00
RMM:   2    -0.116888211525E+04   -0.47476E-01   -0.52499E-01  1588   0.806E-01    0.185E+00
RMM:   3    -0.116887114619E+04    0.10969E-01   -0.16985E-02  1775   0.142E-01    0.162E+00
RMM:   4    -0.116886985729E+04    0.12889E-02   -0.13330E-02  1584   0.127E-01    0.572E-01
RMM:   5    -0.116887015120E+04   -0.29391E-03   -0.94992E-04  1268   0.336E-02    0.344E-01
RMM:   6    -0.116887040043E+04   -0.24922E-03   -0.38290E-04  1148   0.241E-02    0.123E-01
RMM:   7    -0.116887035460E+04    0.45821E-04   -0.20090E-04  1079   0.178E-02
   2 F= -.11760055E+04 E0= -.11760055E+04  d E =0.698831E-02  mag=    -0.0002
       N       E                     dE             d eps       ncg     rms          rms(c)
DAV:   1    -0.116887428377E+04   -0.38833E-02   -0.28339E+00  1692   0.266E+00    0.111E+00
RMM:   2    -0.116888995557E+04   -0.15672E-01   -0.17546E-01  1589   0.458E-01    0.109E+00
RMM:   3    -0.116888610677E+04    0.38488E-02   -0.53699E-03  1506   0.784E-02    0.100E+00
RMM:   4    -0.116888545559E+04    0.65119E-03   -0.54468E-03  1576   0.803E-02    0.362E-01
RMM:   5    -0.116888554662E+04   -0.91035E-04   -0.36311E-04  1147   0.223E-02
   3 F= -.11760197E+04 E0= -.11760197E+04  d E =-.721503E-02  mag=     0.0000
       N       E                     dE             d eps       ncg     rms          rms(c)
DAV:   1    -0.116888612132E+04   -0.66573E-03   -0.80859E-01  1692   0.149E+00    0.335E-01
RMM:   2    -0.116888843564E+04   -0.23143E-02   -0.30669E-02  1597   0.237E-01    0.304E-01
RMM:   3    -0.116888758855E+04    0.84709E-03   -0.12350E-03  1442   0.473E-02    0.275E-01
RMM:   4    -0.116888685208E+04    0.73647E-03   -0.31378E-03  1584   0.639E-02    0.958E-02
RMM:   5    -0.116888688418E+04   -0.32097E-04   -0.27088E-04  1146   0.208E-02
   4 F= -.11760213E+04 E0= -.11760213E+04  d E =-.151515E-02  mag=     0.0000
       N       E                     dE             d eps       ncg     rms          rms(c)
DAV:   1    -0.116888728018E+04   -0.42810E-03   -0.78082E-02  1728   0.463E-01    0.968E-02
RMM:   2    -0.116888746628E+04   -0.18610E-03   -0.28723E-03  1562   0.713E-02    0.859E-02
RMM:   3    -0.116888735921E+04    0.10708E-03   -0.10556E-04  1020   0.149E-02    0.754E-02
RMM:   4    -0.116888724712E+04    0.11209E-03   -0.49842E-04  1396   0.254E-02    0.251E-02
RMM:   5    -0.116888725411E+04   -0.69932E-05   -0.29553E-05   971   0.809E-03
   5 F= -.11760216E+04 E0= -.11760216E+04  d E =-.183021E-02  mag=     0.0000
       N       E                     dE             d eps       ncg     rms          rms(c)
DAV:   1    -0.116888668467E+04    0.56245E-03   -0.48418E-01  1800   0.129E+00    0.213E-01
RMM:   2    -0.116888952914E+04   -0.28445E-02   -0.32805E-02  1594   0.216E-01    0.172E-01
RMM:   3    -0.116888862559E+04    0.90354E-03   -0.12100E-03  1307   0.419E-02    0.147E-01
RMM:   4    -0.116888830949E+04    0.31610E-03   -0.11040E-03  1577   0.379E-02    0.707E-02
RMM:   5    -0.116888830523E+04    0.42637E-05   -0.15220E-04  1062   0.156E-02
   6 F= -.11760228E+04 E0= -.11760228E+04  d E =-.122784E-02  mag=     0.0000
       N       E                     dE             d eps       ncg     rms          rms(c)
DAV:   1    -0.116888835159E+04   -0.42093E-04   -0.25238E-03  1872   0.931E-02    0.243E-02
RMM:   2    -0.116888836542E+04   -0.13829E-04   -0.15012E-04  1033   0.158E-02
   7 F= -.11760229E+04 E0= -.11760229E+04  d E =-.127549E-02  mag=     0.0000
       N       E                     dE             d eps       ncg     rms          rms(c)
DAV:   1    -0.116888795429E+04    0.39730E-03   -0.20095E-01  1800   0.816E-01    0.108E-01
RMM:   2    -0.116888911995E+04   -0.11657E-02   -0.12923E-02  1600   0.137E-01    0.848E-02
RMM:   3    -0.116888881058E+04    0.30937E-03   -0.45346E-04  1161   0.271E-02    0.744E-02
RMM:   4    -0.116888881271E+04   -0.21376E-05   -0.21226E-04  1092   0.187E-02
   8 F= -.11760234E+04 E0= -.11760234E+04  d E =-.593021E-03  mag=     0.0000
       N       E                     dE             d eps       ncg     rms          rms(c)
DAV:   1    -0.116888876357E+04    0.47006E-04   -0.92043E-03  1800   0.176E-01    0.384E-02
RMM:   2    -0.116888880370E+04   -0.40126E-04   -0.55971E-04  1142   0.289E-02
   9 F= -.11760235E+04 E0= -.11760235E+04  d E =-.615913E-03  mag=     0.0000
