       N       E                     dE             d eps       ncg     rms          rms(c)
DAV:   1     0.449066143971E+04    0.44907E+04   -0.17426E+05  1944   0.901E+02
DAV:   2    -0.136578424475E+03   -0.46272E+04   -0.41907E+04  2520   0.200E+02
DAV:   3    -0.119087348015E+04   -0.10543E+04   -0.10496E+04  2088   0.104E+02
DAV:   4    -0.123320152698E+04   -0.42328E+02   -0.42133E+02  2052   0.273E+01
DAV:   5    -0.123429596696E+04   -0.10944E+01   -0.10927E+01  2412   0.406E+00    0.685E+01
RMM:   6    -0.122038502675E+04    0.13911E+02   -0.10071E+01  1619   0.332E+00    0.526E+01
RMM:   7    -0.119050545510E+04    0.29880E+02   -0.65243E+01  1633   0.833E+00    0.323E+01
RMM:   8    -0.118059173984E+04    0.99137E+01   -0.65105E+00  1681   0.296E+00    0.268E+01
RMM:   9    -0.117248219994E+04    0.81095E+01   -0.39568E+01  1596   0.696E+00    0.176E+01
RMM:  10    -0.117096124854E+04    0.15210E+01   -0.37124E+00  1652   0.226E+00    0.133E+01
RMM:  11    -0.117045051769E+04    0.51073E+00   -0.32414E+00  1682   0.162E+00    0.767E+00
RMM:  12    -0.117038247661E+04    0.68041E-01   -0.17587E-01  1731   0.512E-01    0.536E+00
RMM:  13    -0.117001759194E+04    0.36488E+00   -0.92716E-01  1589   0.106E+00    0.243E+00
RMM:  14    -0.117000291927E+04    0.14673E-01   -0.66122E-02  1671   0.299E-01    0.169E+00
RMM:  15    -0.116998988854E+04    0.13031E-01   -0.12206E-01  1585   0.394E-01    0.527E-01
RMM:  16    -0.116998943204E+04    0.45651E-03   -0.21417E-02  1627   0.172E-01    0.365E-01
RMM:  17    -0.116998993483E+04   -0.50279E-03   -0.48855E-03  1629   0.797E-02    0.239E-01
RMM:  18    -0.116999052593E+04   -0.59110E-03   -0.72934E-04  1497   0.325E-02    0.226E-01
RMM:  19    -0.116999026831E+04    0.25762E-03   -0.34813E-04  1157   0.205E-02    0.168E-01
RMM:  20    -0.116998991084E+04    0.35747E-03   -0.35020E-04  1167   0.181E-02    0.102E-01
RMM:  21    -0.116999004468E+04   -0.13384E-03   -0.14944E-04  1096   0.141E-02    0.694E-02
RMM:  22    -0.116999002249E+04    0.22192E-04   -0.10060E-04  1096   0.106E-02
   1 F= -.11770964E+04 E0= -.11770964E+04  d E =-.117710E+04  mag=    -1.0022
       N       E                     dE             d eps       ncg     rms          rms(c)
DAV:   1    -0.116998720276E+04    0.28419E-02   -0.80798E-01  1800   0.133E+00    0.451E-01
RMM:   2    -0.116999072898E+04   -0.35262E-02   -0.41298E-02  1689   0.222E-01    0.402E-01
RMM:   3    -0.116998993870E+04    0.79028E-03   -0.28110E-03  1737   0.553E-02    0.325E-01
RMM:   4    -0.116998936752E+04    0.57119E-03   -0.46631E-03  1586   0.727E-02    0.111E-01
RMM:   5    -0.116998929037E+04    0.77150E-04   -0.17829E-04  1129   0.175E-02
   2 F= -.11770958E+04 E0= -.11770958E+04  d E =0.642997E-03  mag=    -1.0000
       N       E                     dE             d eps       ncg     rms          rms(c)
DAV:   1    -0.116999122249E+04   -0.18550E-02   -0.25695E-01  1728   0.746E-01    0.248E-01
RMM:   2    -0.116999208922E+04   -0.86673E-03   -0.11436E-02  1679   0.117E-01    0.217E-01
RMM:   3    -0.116999171091E+04    0.37831E-03   -0.88753E-04  1425   0.319E-02    0.165E-01
RMM:   4    -0.116999150652E+04    0.20440E-03   -0.14648E-03  1584   0.410E-02    0.619E-02
RMM:   5    -0.116999148598E+04    0.20535E-04   -0.53963E-05  1070   0.103E-02
   3 F= -.11770979E+04 E0= -.11770979E+04  d E =-.149837E-02  mag=    -1.0000
       N       E                     dE             d eps       ncg     rms          rms(c)
DAV:   1    -0.116999184397E+04   -0.33745E-03   -0.32484E-01  1836   0.899E-01    0.224E-01
RMM:   2    -0.116999232182E+04   -0.47785E-03   -0.89028E-03  1656   0.128E-01    0.204E-01
RMM:   3    -0.116999185180E+04    0.47002E-03   -0.65515E-04  1459   0.324E-02    0.164E-01
RMM:   4    -0.116999148353E+04    0.36828E-03   -0.20352E-03  1585   0.485E-02    0.572E-02
RMM:   5    -0.116999146124E+04    0.22285E-04   -0.68771E-05  1077   0.117E-02
   4 F= -.11770980E+04 E0= -.11770980E+04  d E =-.121281E-03  mag=    -1.0000
       N       E                     dE             d eps       ncg     rms          rms(c)
DAV:   1    -0.116999224595E+04   -0.76242E-03   -0.76759E-02  1800   0.437E-01    0.107E-01
RMM:   2    -0.116999232183E+04   -0.75879E-04   -0.19595E-03  1649   0.603E-02    0.972E-02
RMM:   3    -0.116999217778E+04    0.14405E-03   -0.15882E-04  1058   0.165E-02    0.748E-02
RMM:   4    -0.116999208201E+04    0.95768E-04   -0.52533E-04  1482   0.250E-02
   5 F= -.11770986E+04 E0= -.11770986E+04  d E =-.670331E-03  mag=    -1.0000
