       N       E                     dE             d eps       ncg     rms          rms(c)
DAV:   1     0.513343236706E+04    0.51334E+04   -0.16900E+05  1800   0.913E+02
DAV:   2     0.281365083363E+02   -0.51053E+04   -0.46391E+04  2520   0.217E+02
DAV:   3    -0.118072972294E+04   -0.12089E+04   -0.12017E+04  2124   0.115E+02
DAV:   4    -0.123542920928E+04   -0.54699E+02   -0.54330E+02  2052   0.329E+01
DAV:   5    -0.123758262926E+04   -0.21534E+01   -0.21484E+01  2628   0.637E+00    0.599E+01
RMM:   6    -0.122463207677E+04    0.12951E+02   -0.61924E+00  1753   0.324E+00    0.486E+01
RMM:   7    -0.118465461820E+04    0.39977E+02   -0.53498E+01  1965   0.956E+00    0.288E+01
RMM:   8    -0.117440979511E+04    0.10245E+02   -0.16221E+01  1895   0.718E+00    0.206E+01
RMM:   9    -0.117319524376E+04    0.12146E+01   -0.31655E+01  2019   0.819E+00    0.914E+00
RMM:  10    -0.117267845706E+04    0.51679E+00   -0.14646E+00  2001   0.314E+00    0.521E+00
RMM:  11    -0.117235878389E+04    0.31967E+00   -0.92534E-01  1883   0.166E+00    0.217E+00
RMM:  12    -0.117235403171E+04    0.47522E-02   -0.23489E-01  1932   0.119E+00    0.780E-01
RMM:  13    -0.117235409414E+04   -0.62427E-04   -0.12280E-01  1999   0.541E-01    0.393E-01
RMM:  14    -0.117234902716E+04    0.50670E-02   -0.21811E-02  1935   0.266E-01    0.284E-01
RMM:  15    -0.117234897522E+04    0.51939E-04   -0.41892E-03  1789   0.129E-01    0.221E-01
RMM:  16    -0.117234896360E+04    0.11616E-04   -0.39264E-03  1940   0.942E-02    0.944E-02
RMM:  17    -0.117234912483E+04   -0.16123E-03   -0.96469E-04  1726   0.634E-02    0.721E-02
RMM:  18    -0.117234914151E+04   -0.16675E-04   -0.27260E-04  1237   0.497E-02
   1 F= -.11800258E+04 E0= -.11800258E+04  d E =-.118003E+04  mag=     1.9996
       N       E                     dE             d eps       ncg     rms          rms(c)
DAV:   1    -0.117234943926E+04   -0.31442E-03   -0.22028E-01  1800   0.763E-01    0.160E-01
RMM:   2    -0.117234967906E+04   -0.23981E-03   -0.67885E-03  1977   0.126E-01    0.148E-01
RMM:   3    -0.117234930080E+04    0.37827E-03   -0.46582E-04  1363   0.562E-02    0.123E-01
RMM:   4    -0.117234870568E+04    0.59512E-03   -0.27115E-03  1962   0.741E-02    0.425E-02
RMM:   5    -0.117234871356E+04   -0.78865E-05   -0.12391E-04  1106   0.393E-02
   2 F= -.11800261E+04 E0= -.11800261E+04  d E =-.290823E-03  mag=     1.9999
       N       E                     dE             d eps       ncg     rms          rms(c)
DAV:   1    -0.117234956327E+04   -0.85759E-03   -0.43385E-02  1944   0.339E-01    0.616E-02
RMM:   2    -0.117234957104E+04   -0.77688E-05   -0.83660E-04  1555   0.520E-02
   3 F= -.11800266E+04 E0= -.11800266E+04  d E =-.828533E-03  mag=     2.0000
