       N       E                     dE             d eps       ncg     rms          rms(c)
DAV:   1     0.499284061493E+04    0.49928E+04   -0.17207E+05  1836   0.911E+02
DAV:   2    -0.222483802362E+02   -0.50151E+04   -0.45742E+04  2520   0.210E+02
DAV:   3    -0.117649006158E+04   -0.11542E+04   -0.11480E+04  2160   0.113E+02
DAV:   4    -0.123335389599E+04   -0.56864E+02   -0.56597E+02  2124   0.332E+01
DAV:   5    -0.123546879789E+04   -0.21149E+01   -0.21109E+01  2484   0.602E+00    0.625E+01
RMM:   6    -0.122137844789E+04    0.14090E+02   -0.80705E+00  1644   0.331E+00    0.507E+01
RMM:   7    -0.118475879804E+04    0.36620E+02   -0.59198E+01  1914   0.100E+01    0.388E+01
RMM:   8    -0.118087355638E+04    0.38852E+01   -0.53712E+00  1915   0.581E+00    0.289E+01
RMM:   9    -0.117172103669E+04    0.91525E+01   -0.23470E+01  1705   0.598E+00    0.181E+01
RMM:  10    -0.117351865162E+04   -0.17976E+01   -0.20598E+01  1915   0.910E+00    0.129E+01
RMM:  11    -0.117304523843E+04    0.47341E+00   -0.37129E+00  2023   0.308E+00    0.942E+00
RMM:  12    -0.117200363648E+04    0.10416E+01   -0.21327E+00  1811   0.171E+00    0.638E+00
RMM:  13    -0.117082687533E+04    0.11768E+01   -0.75179E-01  1864   0.146E+00    0.455E+00
RMM:  14    -0.117028063628E+04    0.54624E+00   -0.46125E-01  1805   0.697E-01    0.336E+00
RMM:  15    -0.117006084097E+04    0.21980E+00   -0.66770E-02  1818   0.627E-01    0.305E+00
RMM:  16    -0.116967208500E+04    0.38876E+00   -0.14404E-01  2032   0.357E-01    0.249E+00
RMM:  17    -0.116928896694E+04    0.38312E+00   -0.28166E-01  1828   0.472E-01    0.122E+00
RMM:  18    -0.116921075364E+04    0.78213E-01   -0.85122E-02  1805   0.451E-01    0.785E-01
RMM:  19    -0.116920503266E+04    0.57210E-02   -0.13969E-02  1889   0.144E-01    0.647E-01
RMM:  20    -0.116921504050E+04   -0.10008E-01   -0.24768E-02  1890   0.137E-01    0.757E-01
RMM:  21    -0.116919842195E+04    0.16619E-01   -0.84998E-03  1845   0.129E-01    0.406E-01
RMM:  22    -0.116920143844E+04   -0.30165E-02   -0.17455E-03  1677   0.868E-02    0.423E-01
RMM:  23    -0.116919952521E+04    0.19132E-02   -0.26971E-03  1770   0.838E-02    0.278E-01
RMM:  24    -0.116919722379E+04    0.23014E-02   -0.11865E-03  1341   0.521E-02    0.170E-01
RMM:  25    -0.116919632982E+04    0.89397E-03   -0.91632E-04  1197   0.451E-02    0.834E-02
RMM:  26    -0.116919621197E+04    0.11784E-03   -0.29623E-04  1156   0.280E-02    0.544E-02
RMM:  27    -0.116919617212E+04    0.39857E-04   -0.11228E-04  1086   0.277E-02
   1 F= -.11762241E+04 E0= -.11762241E+04  d E =-.117622E+04  mag=    -0.0038
       N       E                     dE             d eps       ncg     rms          rms(c)
DAV:   1    -0.116919455636E+04    0.16556E-02   -0.34368E-01  1800   0.986E-01    0.188E-01
RMM:   2    -0.116919590647E+04   -0.13501E-02   -0.16305E-02  1883   0.163E-01    0.159E-01
RMM:   3    -0.116919583615E+04    0.70316E-04   -0.19651E-03  1394   0.112E-01    0.145E-01
RMM:   4    -0.116919565925E+04    0.17690E-03   -0.47337E-04  1181   0.455E-02    0.123E-01
RMM:   5    -0.116919549820E+04    0.16106E-03   -0.94202E-04  1591   0.518E-02    0.708E-02
RMM:   6    -0.116919552330E+04   -0.25105E-04   -0.28056E-04  1193   0.587E-02
   2 F= -.11762238E+04 E0= -.11762238E+04  d E =0.341599E-03  mag=    -0.0004
       N       E                     dE             d eps       ncg     rms          rms(c)
DAV:   1    -0.116919648591E+04   -0.98771E-03   -0.10372E-01  1872   0.540E-01    0.956E-02
RMM:   2    -0.116919676326E+04   -0.27735E-03   -0.39900E-03  1610   0.798E-02    0.896E-02
RMM:   3    -0.116919671535E+04    0.47905E-04   -0.50158E-04  1145   0.850E-02
   3 F= -.11762248E+04 E0= -.11762248E+04  d E =-.683025E-03  mag=    -0.0000
