       N       E                     dE             d eps       ncg     rms          rms(c)
DAV:   1     0.493756967688E+04    0.49376E+04   -0.17186E+05  1872   0.907E+02
DAV:   2    -0.170378974630E+02   -0.49546E+04   -0.45141E+04  2484   0.207E+02
DAV:   3    -0.117102666195E+04   -0.11540E+04   -0.11484E+04  2088   0.113E+02
DAV:   4    -0.123028838011E+04   -0.59262E+02   -0.58924E+02  2124   0.342E+01
DAV:   5    -0.123262600231E+04   -0.23376E+01   -0.23321E+01  2448   0.621E+00    0.604E+01
RMM:   6    -0.121962728992E+04    0.12999E+02   -0.67870E+00  1654   0.327E+00    0.499E+01
RMM:   7    -0.118570650466E+04    0.33921E+02   -0.42486E+01  1890   0.893E+00    0.307E+01
RMM:   8    -0.117277255143E+04    0.12934E+02   -0.18144E+01  1735   0.787E+00    0.228E+01
RMM:   9    -0.116959621479E+04    0.31763E+01   -0.34858E+01  1833   0.825E+00    0.972E+00
RMM:  10    -0.117024707787E+04   -0.65086E+00   -0.37871E+00  1866   0.588E+00    0.803E+00
RMM:  11    -0.116953528078E+04    0.71180E+00   -0.91548E-01  1844   0.158E+00    0.453E+00
RMM:  12    -0.116936131293E+04    0.17397E+00   -0.80511E-01  1752   0.146E+00    0.163E+00
RMM:  13    -0.116931933897E+04    0.41974E-01   -0.20368E-01  1851   0.107E+00    0.943E-01
RMM:  14    -0.116931504269E+04    0.42963E-02   -0.65206E-02  1879   0.349E-01    0.666E-01
RMM:  15    -0.116931564899E+04   -0.60630E-03   -0.60131E-03  1796   0.212E-01    0.522E-01
RMM:  16    -0.116931576964E+04   -0.12065E-03   -0.34621E-03  1804   0.879E-02    0.388E-01
RMM:  17    -0.116931602324E+04   -0.25360E-03   -0.81492E-04  1580   0.677E-02    0.281E-01
RMM:  18    -0.116931610331E+04   -0.80072E-04   -0.25059E-04  1173   0.468E-02
   1 F= -.11763077E+04 E0= -.11763077E+04  d E =-.117631E+04  mag=     0.0017
       N       E                     dE             d eps       ncg     rms          rms(c)
DAV:   1    -0.116931441568E+04    0.16076E-02   -0.40315E-01  1944   0.109E+00    0.162E-01
RMM:   2    -0.116931562665E+04   -0.12110E-02   -0.13704E-02  1898   0.178E-01    0.153E-01
RMM:   3    -0.116931560098E+04    0.25670E-04   -0.11449E-03  1440   0.999E-02    0.141E-01
RMM:   4    -0.116931528432E+04    0.31666E-03   -0.87536E-04  1600   0.568E-02    0.740E-02
RMM:   5    -0.116931533952E+04   -0.55204E-04   -0.93444E-04  1568   0.600E-02
   2 F= -.11763069E+04 E0= -.11763069E+04  d E =0.851268E-03  mag=    -0.0004
       N       E                     dE             d eps       ncg     rms          rms(c)
DAV:   1    -0.116931695903E+04   -0.16747E-02   -0.14704E-01  1800   0.650E-01    0.944E-02
RMM:   2    -0.116931713573E+04   -0.17670E-03   -0.33138E-03  1683   0.951E-02    0.895E-02
RMM:   3    -0.116931705151E+04    0.84221E-04   -0.39122E-04  1304   0.817E-02
   3 F= -.11763087E+04 E0= -.11763087E+04  d E =-.910693E-03  mag=     0.0000
