       N       E                     dE             d eps       ncg     rms          rms(c)
DAV:   1     0.475134584960E+04    0.47513E+04   -0.17384E+05  1764   0.990E+02
DAV:   2    -0.172630713603E+02   -0.47686E+04   -0.43771E+04  2232   0.219E+02
DAV:   3    -0.118074322478E+04   -0.11635E+04   -0.11556E+04  1836   0.118E+02
DAV:   4    -0.123369722355E+04   -0.52954E+02   -0.52527E+02  1872   0.341E+01
DAV:   5    -0.123510917579E+04   -0.14120E+01   -0.14061E+01  1980   0.529E+00    0.621E+01
RMM:   6    -0.121897902001E+04    0.16130E+02   -0.90363E+00  1488   0.377E+00    0.511E+01
RMM:   7    -0.118868400561E+04    0.30295E+02   -0.15042E+02  1504   0.141E+01    0.461E+01
RMM:   8    -0.117989637755E+04    0.87876E+01   -0.51440E+00  1599   0.316E+00    0.409E+01
RMM:   9    -0.117374129253E+04    0.61551E+01   -0.30747E+00  1555   0.170E+00    0.259E+01
RMM:  10    -0.116840092932E+04    0.53404E+01   -0.24651E+01  1461   0.611E+00    0.161E+01
RMM:  11    -0.117084549125E+04   -0.24446E+01   -0.97915E+00  1481   0.416E+00    0.138E+01
RMM:  12    -0.116956186522E+04    0.12836E+01   -0.88722E-01  1528   0.172E+00    0.107E+01
RMM:  13    -0.116726857525E+04    0.22933E+01   -0.21667E+00  1491   0.171E+00    0.711E+00
RMM:  14    -0.116635606416E+04    0.91251E+00   -0.42664E-01  1549   0.827E-01    0.553E+00
RMM:  15    -0.116607385510E+04    0.28221E+00   -0.14694E-01  1699   0.343E-01    0.476E+00
RMM:  16    -0.116607563176E+04   -0.17767E-02   -0.69328E-03  1665   0.922E-02    0.477E+00
RMM:  17    -0.116617649677E+04   -0.10087E+00   -0.55857E-03  1540   0.790E-02    0.507E+00
RMM:  18    -0.116616163891E+04    0.14858E-01   -0.25185E-04   970   0.229E-02    0.502E+00
RMM:  19    -0.116574887615E+04    0.41276E+00   -0.16925E-01  1572   0.420E-01    0.334E+00
RMM:  20    -0.116562479446E+04    0.12408E+00   -0.21071E-01  1534   0.524E-01    0.189E+00
RMM:  21    -0.116559466013E+04    0.30134E-01   -0.20419E-01  1622   0.503E-01    0.144E+00
RMM:  22    -0.116558233565E+04    0.12324E-01   -0.13146E-02  1646   0.137E-01    0.106E+00
RMM:  23    -0.116559098084E+04   -0.86452E-02   -0.11356E-02  1599   0.114E-01    0.122E+00
RMM:  24    -0.116567415166E+04   -0.83171E-01   -0.44233E-02  1596   0.201E-01    0.272E+00
RMM:  25    -0.116565221778E+04    0.21934E-01   -0.37541E-03  1254   0.560E-02    0.244E+00
RMM:  26    -0.116563481803E+04    0.17400E-01   -0.13316E-03  1313   0.429E-02    0.210E+00
RMM:  27    -0.116561271505E+04    0.22103E-01   -0.35227E-03  1485   0.674E-02    0.159E+00
RMM:  28    -0.116557903395E+04    0.33681E-01   -0.25314E-02  1568   0.164E-01    0.455E-01
RMM:  29    -0.116557949799E+04   -0.46404E-03   -0.38060E-03  1302   0.577E-02    0.403E-01
RMM:  30    -0.116557900022E+04    0.49778E-03   -0.92732E-04  1202   0.330E-02    0.373E-01
RMM:  31    -0.116557886242E+04    0.13780E-03   -0.20670E-04   979   0.209E-02    0.338E-01
RMM:  32    -0.116557859887E+04    0.26354E-03   -0.18853E-04   967   0.200E-02    0.259E-01
RMM:  33    -0.116557858481E+04    0.14065E-04   -0.66087E-05   907   0.154E-02
   1 F= -.11725525E+04 E0= -.11725525E+04  d E =-.117255E+04  mag=     0.0014
       N       E                     dE             d eps       ncg     rms          rms(c)
DAV:   1    -0.116557584387E+04    0.27550E-02   -0.65979E-01  1584   0.154E+00    0.398E-01
RMM:   2    -0.116558050988E+04   -0.46660E-02   -0.59707E-02  1605   0.258E-01    0.374E-01
RMM:   3    -0.116557979903E+04    0.71085E-03   -0.34317E-03  1424   0.727E-02    0.358E-01
RMM:   4    -0.116557855976E+04    0.12393E-02   -0.16296E-03  1450   0.500E-02    0.255E-01
RMM:   5    -0.116557789828E+04    0.66148E-03   -0.36991E-03  1443   0.771E-02    0.864E-02
RMM:   6    -0.116557791187E+04   -0.13589E-04   -0.19007E-04   950   0.287E-02
   2 F= -.11725521E+04 E0= -.11725521E+04  d E =0.389517E-03  mag=     0.0001
       N       E                     dE             d eps       ncg     rms          rms(c)
DAV:   1    -0.116557888820E+04   -0.98992E-03   -0.20177E-01  1584   0.853E-01    0.169E-01
RMM:   2    -0.116558025342E+04   -0.13652E-02   -0.17632E-02  1581   0.142E-01    0.160E-01
RMM:   3    -0.116558008766E+04    0.16576E-03   -0.94595E-04  1012   0.387E-02    0.162E-01
RMM:   4    -0.116558001903E+04    0.68629E-04   -0.16934E-04   928   0.172E-02
   3 F= -.11725540E+04 E0= -.11725540E+04  d E =-.155908E-02  mag=     0.0000
       N       E                     dE             d eps       ncg     rms          rms(c)
DAV:   1    -0.116558243411E+04   -0.23465E-02   -0.39374E-01  1512   0.109E+00    0.334E-01
RMM:   2    -0.116558138437E+04    0.10497E-02   -0.86885E-03  1458   0.155E-01    0.291E-01
RMM:   3    -0.116557951868E+04    0.18657E-02   -0.10437E-03  1452   0.502E-02    0.238E-01
RMM:   4    -0.116557682050E+04    0.26982E-02   -0.11151E-02  1440   0.126E-01    0.753E-02
RMM:   5    -0.116557679459E+04    0.25912E-04   -0.20232E-04   983   0.302E-02
   4 F= -.11725505E+04 E0= -.11725505E+04  d E =0.355933E-02  mag=    -0.0000
       N       E                     dE             d eps       ncg     rms          rms(c)
DAV:   1    -0.116558235899E+04   -0.55385E-02   -0.25051E-01  1656   0.864E-01    0.221E-01
RMM:   2    -0.116558190444E+04    0.45455E-03   -0.53743E-03  1466   0.123E-01    0.196E-01
RMM:   3    -0.116558093428E+04    0.97015E-03   -0.59069E-04  1302   0.391E-02    0.153E-01
RMM:   4    -0.116557965875E+04    0.12755E-02   -0.47865E-03  1440   0.830E-02    0.481E-02
RMM:   5    -0.116557967022E+04   -0.11471E-04   -0.15319E-04   928   0.265E-02
   5 F= -.11725536E+04 E0= -.11725536E+04  d E =0.425770E-03  mag=    -0.0000
