       N       E                     dE             d eps       ncg     rms          rms(c)
DAV:   1     0.547262862219E+04    0.54726E+04   -0.16543E+05  1664   0.991E+02
DAV:   2     0.203103153539E+03   -0.52695E+04   -0.48032E+04  2248   0.240E+02
DAV:   3    -0.114298120902E+04   -0.13461E+04   -0.13086E+04  1888   0.132E+02
DAV:   4    -0.122753999544E+04   -0.84559E+02   -0.83724E+02  2256   0.491E+01
DAV:   5    -0.122918683657E+04   -0.16468E+01   -0.16300E+01  2016   0.587E+00    0.596E+01
RMM:   6    -0.121647328748E+04    0.12714E+02   -0.67521E+00  1842   0.396E+00    0.485E+01
RMM:   7    -0.117267263677E+04    0.43801E+02   -0.63702E+01  1589   0.106E+01    0.279E+01
RMM:   8    -0.116246758111E+04    0.10205E+02   -0.72060E+01  1770   0.115E+01    0.123E+01
RMM:   9    -0.116435805047E+04   -0.18905E+01   -0.88834E+00  1955   0.488E+00    0.105E+01
RMM:  10    -0.116390509857E+04    0.45295E+00   -0.14416E+00  1782   0.179E+00    0.617E+00
RMM:  11    -0.116382839834E+04    0.76700E-01   -0.91495E-01  1925   0.133E+00    0.233E+00
RMM:  12    -0.116379460713E+04    0.33791E-01   -0.17407E-01  1877   0.637E-01    0.126E+00
RMM:  13    -0.116396291161E+04   -0.16830E+00   -0.46810E-01  1716   0.732E-01    0.484E-01
RMM:  14    -0.116396642566E+04   -0.35141E-02   -0.60025E-02  1722   0.318E-01    0.309E-01
RMM:  15    -0.116398280936E+04   -0.16384E-01   -0.43166E-02  1279   0.210E-01    0.306E-01
RMM:  16    -0.116402713434E+04   -0.44325E-01   -0.17033E-01  1073   0.210E-01    0.428E-01
RMM:  17    -0.116390871071E+04    0.11842E+00   -0.38236E-01  1244   0.256E-01    0.199E-01
RMM:  18    -0.116392154384E+04   -0.12833E-01   -0.21140E-02  1130   0.153E-01    0.191E-01
RMM:  19    -0.116390797819E+04    0.13566E-01   -0.24899E-02  1100   0.156E-01    0.103E-01
RMM:  20    -0.116385871636E+04    0.49262E-01   -0.53143E-02  1122   0.174E-01    0.949E-02
RMM:  21    -0.116384415474E+04    0.14562E-01   -0.74793E-03  1014   0.104E-01    0.937E-02
RMM:  22    -0.116384493645E+04   -0.78171E-03   -0.11986E-03   951   0.568E-02
   1 F= -.11715084E+04 E0= -.11715003E+04  d E =-.117151E+04  mag=     0.3015
       N       E                     dE             d eps       ncg     rms          rms(c)
DAV:   1    -0.116384930363E+04   -0.51489E-02   -0.32188E-02  1862   0.311E-01    0.124E-01
RMM:   2    -0.116387695780E+04   -0.27654E-01   -0.44268E-03   990   0.792E-02    0.104E-01
RMM:   3    -0.116392551407E+04   -0.48556E-01   -0.56460E-02  1021   0.132E-01    0.754E-02
RMM:   4    -0.116394896781E+04   -0.23454E-01   -0.68138E-02  1053   0.118E-01    0.900E-02
RMM:   5    -0.116394158988E+04    0.73779E-02   -0.78758E-03   958   0.743E-02    0.992E-02
RMM:   6    -0.116396009989E+04   -0.18510E-01   -0.38772E-02   993   0.802E-02    0.129E-01
RMM:   7    -0.116392559341E+04    0.34506E-01   -0.83322E-02   970   0.125E-01    0.618E-02
RMM:   8    -0.116393104225E+04   -0.54488E-02   -0.14557E-03   767   0.414E-02    0.704E-02
RMM:   9    -0.116390658564E+04    0.24457E-01   -0.23131E-02   890   0.777E-02    0.378E-02
RMM:  10    -0.116389082785E+04    0.15758E-01   -0.78264E-03   935   0.631E-02    0.346E-02
RMM:  11    -0.116387359607E+04    0.17232E-01   -0.64539E-03   927   0.590E-02    0.373E-02
RMM:  12    -0.116386528877E+04    0.83073E-02   -0.14899E-03   781   0.448E-02    0.408E-02
RMM:  13    -0.116387169874E+04   -0.64100E-02   -0.36247E-04   640   0.254E-02    0.413E-02
RMM:  14    -0.116387049152E+04    0.12072E-02   -0.75753E-05   499   0.151E-02    0.419E-02
RMM:  15    -0.116387201459E+04   -0.15231E-02   -0.35253E-05   461   0.126E-02    0.420E-02
RMM:  16    -0.116387220850E+04   -0.19391E-03   -0.13255E-05   423   0.104E-02
   2 F= -.11715357E+04 E0= -.11715281E+04  d E =-.273400E-01  mag=     0.2696
       N       E                     dE             d eps       ncg     rms          rms(c)
DAV:   1    -0.116386658472E+04    0.54299E-02   -0.88453E-02  1764   0.498E-01    0.943E-02
RMM:   2    -0.116389114194E+04   -0.24557E-01   -0.65180E-03  1021   0.117E-01    0.739E-02
RMM:   3    -0.116392076798E+04   -0.29626E-01   -0.17818E-02   988   0.123E-01    0.626E-02
RMM:   4    -0.116393889775E+04   -0.18130E-01   -0.33434E-02  1003   0.113E-01    0.673E-02
RMM:   5    -0.116393182112E+04    0.70766E-02   -0.35546E-03   918   0.639E-02    0.704E-02
RMM:   6    -0.116393626300E+04   -0.44419E-02   -0.18136E-03   814   0.397E-02    0.759E-02
RMM:   7    -0.116392844084E+04    0.78222E-02   -0.34909E-03   761   0.409E-02    0.717E-02
RMM:   8    -0.116390688274E+04    0.21558E-01   -0.13837E-02   923   0.652E-02    0.658E-02
RMM:   9    -0.116387542410E+04    0.31459E-01   -0.27243E-02  1034   0.101E-01    0.633E-02
RMM:  10    -0.116386370378E+04    0.11720E-01   -0.46611E-03   911   0.623E-02    0.693E-02
RMM:  11    -0.116387980785E+04   -0.16104E-01   -0.27798E-03   665   0.391E-02    0.675E-02
RMM:  12    -0.116388856565E+04   -0.87578E-02   -0.24549E-03   662   0.370E-02    0.657E-02
RMM:  13    -0.116391504263E+04   -0.26477E-01   -0.25586E-02   972   0.867E-02    0.560E-02
RMM:  14    -0.116392782296E+04   -0.12780E-01   -0.11447E-02   851   0.656E-02    0.591E-02
RMM:  15    -0.116393432475E+04   -0.65018E-02   -0.46671E-03   834   0.496E-02    0.628E-02
RMM:  16    -0.116393705650E+04   -0.27318E-02   -0.17569E-03   713   0.379E-02    0.668E-02
RMM:  17    -0.116393750602E+04   -0.44952E-03   -0.34714E-04   596   0.263E-02
   3 F= -.11716011E+04 E0= -.11715936E+04  d E =-.927344E-01  mag=     0.2614
       N       E                     dE             d eps       ncg     rms          rms(c)
DAV:   1    -0.116397201711E+04   -0.34961E-01   -0.17693E-01  1664   0.404E-01    0.200E-01
RMM:   2    -0.116413623386E+04   -0.16422E+00   -0.52725E-01  1033   0.215E-01    0.194E+00
RMM:   3    -0.116392787718E+04    0.20836E+00   -0.14028E-01  1008   0.172E-01    0.104E-01
RMM:   4    -0.116398570984E+04   -0.57833E-01   -0.11634E-01  1002   0.121E-01    0.191E-01
RMM:   5    -0.116395460877E+04    0.31101E-01   -0.90467E-02   944   0.114E-01    0.695E-02
RMM:   6    -0.116393086277E+04    0.23746E-01   -0.39493E-02   913   0.929E-02    0.491E-02
RMM:   7    -0.116391627321E+04    0.14590E-01   -0.50667E-03   799   0.485E-02    0.398E-02
RMM:   8    -0.116391075594E+04    0.55173E-02   -0.25902E-03   792   0.400E-02    0.330E-02
RMM:   9    -0.116390877936E+04    0.19766E-02   -0.25997E-03   745   0.399E-02    0.275E-02
RMM:  10    -0.116390954867E+04   -0.76931E-03   -0.54915E-04   616   0.285E-02
   4 F= -.11715732E+04 E0= -.11715659E+04  d E =0.278517E-01  mag=     0.2555
       N       E                     dE             d eps       ncg     rms          rms(c)
DAV:   1    -0.116388354055E+04    0.25239E-01   -0.51130E-01  1574   0.111E+00    0.144E-01
RMM:   2    -0.116392410183E+04   -0.40561E-01   -0.23004E-02  1205   0.242E-01    0.122E-01
RMM:   3    -0.116397437027E+04   -0.50268E-01   -0.12355E-01  1106   0.202E-01    0.163E-01
RMM:   4    -0.116395690535E+04    0.17465E-01   -0.28452E-02   954   0.143E-01    0.136E-01
RMM:   5    -0.116392744035E+04    0.29465E-01   -0.75450E-02  1020   0.146E-01    0.961E-02
RMM:   6    -0.116394033761E+04   -0.12897E-01   -0.43322E-02  1010   0.122E-01    0.884E-02
RMM:   7    -0.116390678096E+04    0.33557E-01   -0.10209E-02   947   0.785E-02    0.768E-02
RMM:   8    -0.116389442376E+04    0.12357E-01   -0.12959E-02   966   0.729E-02    0.630E-02
RMM:   9    -0.116387712292E+04    0.17301E-01   -0.12127E-02   976   0.750E-02    0.567E-02
RMM:  10    -0.116386714324E+04    0.99797E-02   -0.37397E-03   892   0.558E-02    0.599E-02
RMM:  11    -0.116387463300E+04   -0.74898E-02   -0.62979E-04   686   0.341E-02    0.630E-02
RMM:  12    -0.116386746761E+04    0.71654E-02   -0.70651E-04   675   0.262E-02    0.674E-02
RMM:  13    -0.116386374099E+04    0.37266E-02   -0.33509E-04   639   0.227E-02    0.706E-02
RMM:  14    -0.116385296763E+04    0.10773E-01   -0.18843E-03   762   0.352E-02    0.746E-02
RMM:  15    -0.116385258568E+04    0.38195E-03   -0.12211E-04   637   0.229E-02
   5 F= -.11715166E+04 E0= -.11715091E+04  d E =0.845236E-01  mag=     0.2630
       N       E                     dE             d eps       ncg     rms          rms(c)
DAV:   1    -0.116370740684E+04    0.14556E+00   -0.15597E+00  1558   0.209E+00    0.288E-01
RMM:   2    -0.116380498490E+04   -0.97578E-01   -0.37729E-02  1792   0.433E-01    0.240E-01
RMM:   3    -0.116389640321E+04   -0.91418E-01   -0.31069E-02  1188   0.226E-01    0.192E-01
RMM:   4    -0.116389640845E+04   -0.52377E-05   -0.11127E-01  1113   0.238E-01    0.121E-01
RMM:   5    -0.116391976824E+04   -0.23360E-01   -0.28444E-02  1048   0.135E-01    0.878E-02
RMM:   6    -0.116394993654E+04   -0.30168E-01   -0.18266E-02  1009   0.113E-01    0.101E-01
RMM:   7    -0.116393675081E+04    0.13186E-01   -0.16106E-02   960   0.873E-02    0.881E-02
RMM:   8    -0.116392427218E+04    0.12479E-01   -0.13502E-02   967   0.717E-02    0.782E-02
RMM:   9    -0.116391064814E+04    0.13624E-01   -0.21107E-02   973   0.843E-02    0.638E-02
RMM:  10    -0.116390147716E+04    0.91710E-02   -0.96837E-03   963   0.706E-02    0.567E-02
RMM:  11    -0.116385241581E+04    0.49061E-01   -0.35816E-02  1065   0.128E-01    0.534E-02
RMM:  12    -0.116384967609E+04    0.27397E-02   -0.18475E-03   898   0.644E-02    0.632E-02
RMM:  13    -0.116386995598E+04   -0.20280E-01   -0.20712E-03   735   0.401E-02    0.650E-02
RMM:  14    -0.116387513179E+04   -0.51758E-02   -0.25288E-04   634   0.248E-02    0.659E-02
RMM:  15    -0.116387764377E+04   -0.25120E-02   -0.14483E-04   518   0.182E-02    0.657E-02
RMM:  16    -0.116389120951E+04   -0.13566E-01   -0.23144E-03   632   0.345E-02    0.671E-02
RMM:  17    -0.116390623300E+04   -0.15023E-01   -0.52163E-03   709   0.468E-02    0.679E-02
RMM:  18    -0.116395081990E+04   -0.44587E-01   -0.96046E-02  1071   0.114E-01    0.839E-02
RMM:  19    -0.116397638230E+04   -0.25562E-01   -0.11931E-01   974   0.106E-01    0.158E-01
RMM:  20    -0.116394907427E+04    0.27308E-01   -0.84691E-02   753   0.116E-01    0.879E-02
RMM:  21    -0.116394624439E+04    0.28299E-02   -0.53396E-03   595   0.402E-02    0.106E-01
RMM:  22    -0.116393289699E+04    0.13347E-01   -0.17489E-02   691   0.632E-02    0.744E-02
RMM:  23    -0.116393339588E+04   -0.49889E-03   -0.13373E-03   523   0.358E-02
   6 F= -.11715979E+04 E0= -.11715904E+04  d E =0.324589E-02  mag=     0.2621
       N       E                     dE             d eps       ncg     rms          rms(c)
DAV:   1    -0.116374941294E+04    0.18348E+00   -0.70465E-01  1590   0.143E+00    0.223E-01
RMM:   2    -0.116384240880E+04   -0.92996E-01   -0.15359E-02  1450   0.294E-01    0.182E-01
RMM:   3    -0.116397752216E+04   -0.13511E+00   -0.16465E-01  1168   0.240E-01    0.164E-01
RMM:   4    -0.116401028154E+04   -0.32759E-01   -0.14010E-01  1044   0.178E-01    0.293E-01
RMM:   5    -0.116404107549E+04   -0.30794E-01   -0.14710E-01  1008   0.129E-01    0.475E-01
RMM:   6    -0.116405084073E+04   -0.97652E-02   -0.66716E-02   953   0.917E-02    0.648E-01
RMM:   7    -0.116400233023E+04    0.48511E-01   -0.41424E-02   971   0.994E-02    0.369E-01
RMM:   8    -0.116396541467E+04    0.36916E-01   -0.93563E-02  1009   0.105E-01    0.136E-01
RMM:   9    -0.116397445456E+04   -0.90399E-02   -0.51060E-02   916   0.974E-02    0.155E-01
RMM:  10    -0.116391551323E+04    0.58941E-01   -0.12643E-01  1036   0.135E-01    0.972E-02
RMM:  11    -0.116392456156E+04   -0.90483E-02   -0.15431E-02   903   0.735E-02    0.686E-02
RMM:  12    -0.116393908137E+04   -0.14520E-01   -0.17125E-02   923   0.647E-02    0.742E-02
RMM:  13    -0.116393966272E+04   -0.58134E-03   -0.24643E-03   839   0.443E-02
   7 F= -.11716038E+04 E0= -.11715964E+04  d E =-.270660E-02  mag=     0.2660
       N       E                     dE             d eps       ncg     rms          rms(c)
DAV:   1    -0.116390372267E+04    0.35359E-01   -0.34606E-02  1608   0.277E-01    0.732E-02
RMM:   2    -0.116393777420E+04   -0.34052E-01   -0.92539E-03   932   0.808E-02    0.763E-02
RMM:   3    -0.116394481065E+04   -0.70365E-02   -0.59326E-03   905   0.528E-02    0.845E-02
RMM:   4    -0.116394194366E+04    0.28670E-02   -0.10580E-03   838   0.381E-02    0.818E-02
RMM:   5    -0.116393266867E+04    0.92750E-02   -0.17708E-02   869   0.584E-02    0.643E-02
RMM:   6    -0.116393754150E+04   -0.48728E-02   -0.93560E-03   875   0.570E-02    0.565E-02
RMM:   7    -0.116393354094E+04    0.40006E-02   -0.13184E-02   890   0.700E-02    0.461E-02
RMM:   8    -0.116393411402E+04   -0.57307E-03   -0.26469E-03   830   0.541E-02
   8 F= -.11715982E+04 E0= -.11715907E+04  d E =0.290494E-02  mag=     0.2625
       N       E                     dE             d eps       ncg     rms          rms(c)
DAV:   1    -0.116391720415E+04    0.16337E-01   -0.94496E-02  1558   0.341E-01    0.564E-02
RMM:   2    -0.116393775803E+04   -0.20554E-01   -0.99260E-03   927   0.865E-02    0.631E-02
RMM:   3    -0.116393209169E+04    0.56663E-02   -0.13823E-03   864   0.530E-02    0.606E-02
RMM:   4    -0.116393184290E+04    0.24879E-03   -0.43197E-04   794   0.293E-02
   9 F= -.11715960E+04 E0= -.11715885E+04  d E =0.216994E-02  mag=     0.2624
       N       E                     dE             d eps       ncg     rms          rms(c)
DAV:   1    -0.116386185234E+04    0.70239E-01   -0.24962E-01  1544   0.799E-01    0.133E-01
RMM:   2    -0.116390682286E+04   -0.44971E-01   -0.11362E-02  1039   0.186E-01    0.108E-01
RMM:   3    -0.116396313413E+04   -0.56311E-01   -0.88800E-02  1066   0.177E-01    0.122E-01
RMM:   4    -0.116395398640E+04    0.91477E-02   -0.72080E-03   928   0.103E-01    0.124E-01
RMM:   5    -0.116398051913E+04   -0.26533E-01   -0.58823E-02   987   0.976E-02    0.197E-01
RMM:   6    -0.116393339669E+04    0.47122E-01   -0.15816E-01  1019   0.167E-01    0.683E-02
RMM:   7    -0.116394259371E+04   -0.91970E-02   -0.85421E-03   923   0.712E-02    0.803E-02
RMM:   8    -0.116392941735E+04    0.13176E-01   -0.56737E-03   878   0.513E-02    0.580E-02
RMM:   9    -0.116392586424E+04    0.35531E-02   -0.39349E-03   884   0.398E-02    0.403E-02
RMM:  10    -0.116392106274E+04    0.48015E-02   -0.27703E-03   824   0.368E-02    0.342E-02
RMM:  11    -0.116391450973E+04    0.65530E-02   -0.22608E-03   719   0.338E-02    0.347E-02
RMM:  12    -0.116390909478E+04    0.54149E-02   -0.10570E-03   646   0.310E-02    0.364E-02
RMM:  13    -0.116390926279E+04   -0.16801E-03   -0.17048E-04   537   0.213E-02
  10 F= -.11715737E+04 E0= -.11715662E+04  d E =0.244659E-01  mag=     0.2669
       N       E                     dE             d eps       ncg     rms          rms(c)
DAV:   1    -0.116380058346E+04    0.10851E+00   -0.97159E-01  1506   0.157E+00    0.212E-01
RMM:   2    -0.116387211018E+04   -0.71527E-01   -0.22916E-02  1527   0.318E-01    0.167E-01
RMM:   3    -0.116395683212E+04   -0.84722E-01   -0.10817E-01  1141   0.245E-01    0.140E-01
RMM:   4    -0.116401654132E+04   -0.59709E-01   -0.29151E-01  1094   0.215E-01    0.280E-01
RMM:   5    -0.116391414950E+04    0.10239E+00   -0.30754E-01  1044   0.224E-01    0.112E-01
RMM:   6    -0.116391738620E+04   -0.32367E-02   -0.81078E-03   945   0.873E-02    0.946E-02
RMM:   7    -0.116391181527E+04    0.55709E-02   -0.48595E-03   920   0.574E-02    0.695E-02
RMM:   8    -0.116391073944E+04    0.10758E-02   -0.68284E-03   946   0.581E-02    0.425E-02
RMM:   9    -0.116391783406E+04   -0.70946E-02   -0.89078E-04   888   0.405E-02    0.378E-02
RMM:  10    -0.116392262442E+04   -0.47904E-02   -0.47793E-04   744   0.264E-02    0.359E-02
RMM:  11    -0.116392159934E+04    0.10251E-02   -0.82570E-04   662   0.268E-02    0.338E-02
RMM:  12    -0.116391990376E+04    0.16956E-02   -0.34614E-04   541   0.223E-02    0.336E-02
RMM:  13    -0.116391439293E+04    0.55108E-02   -0.58754E-04   594   0.212E-02    0.342E-02
RMM:  14    -0.116391158180E+04    0.28111E-02   -0.21261E-04   548   0.194E-02    0.342E-02
RMM:  15    -0.116390857877E+04    0.30030E-02   -0.34535E-04   545   0.193E-02    0.346E-02
RMM:  16    -0.116390795637E+04    0.62241E-03   -0.78214E-05   449   0.160E-02
  11 F= -.11715729E+04 E0= -.11715653E+04  d E =0.252897E-01  mag=     0.2670
       N       E                     dE             d eps       ncg     rms          rms(c)
DAV:   1    -0.116387089616E+04    0.37683E-01   -0.49981E-02  1536   0.348E-01    0.694E-02
RMM:   2    -0.116390552781E+04   -0.34632E-01   -0.24066E-03   909   0.773E-02    0.605E-02
RMM:   3    -0.116396354391E+04   -0.58016E-01   -0.59437E-02   996   0.104E-01    0.753E-02
RMM:   4    -0.116393539690E+04    0.28147E-01   -0.45474E-02   945   0.108E-01    0.454E-02
RMM:   5    -0.116393401869E+04    0.13782E-02   -0.41724E-03   850   0.482E-02    0.498E-02
RMM:   6    -0.116391830479E+04    0.15714E-01   -0.17910E-02   893   0.769E-02    0.376E-02
RMM:   7    -0.116391392169E+04    0.43831E-02   -0.37102E-03   776   0.521E-02    0.415E-02
RMM:   8    -0.116389965565E+04    0.14266E-01   -0.58377E-03   839   0.588E-02    0.438E-02
RMM:   9    -0.116388738229E+04    0.12273E-01   -0.29581E-03   806   0.510E-02    0.481E-02
RMM:  10    -0.116389110093E+04   -0.37186E-02   -0.26672E-04   631   0.300E-02    0.501E-02
RMM:  11    -0.116389072526E+04    0.37567E-03   -0.83366E-05   475   0.174E-02
  12 F= -.11715556E+04 E0= -.11715481E+04  d E =0.426189E-01  mag=     0.2644
       N       E                     dE             d eps       ncg     rms          rms(c)
DAV:   1    -0.116386045057E+04    0.30650E-01   -0.80719E-02  1504   0.405E-01    0.751E-02
RMM:   2    -0.116389200518E+04   -0.31555E-01   -0.51169E-03   925   0.100E-01    0.626E-02
RMM:   3    -0.116393072705E+04   -0.38722E-01   -0.23127E-02   983   0.113E-01    0.548E-02
RMM:   4    -0.116394229411E+04   -0.11567E-01   -0.10653E-02   935   0.853E-02    0.646E-02
RMM:   5    -0.116392950461E+04    0.12789E-01   -0.21109E-02   854   0.737E-02    0.489E-02
RMM:   6    -0.116391101565E+04    0.18489E-01   -0.13267E-02   826   0.648E-02    0.487E-02
RMM:   7    -0.116391248145E+04   -0.14658E-02   -0.40604E-04   601   0.308E-02    0.533E-02
RMM:   8    -0.116391403516E+04   -0.15537E-02   -0.15567E-04   455   0.189E-02    0.538E-02
RMM:   9    -0.116391721280E+04   -0.31776E-02   -0.21160E-04   408   0.150E-02    0.553E-02
RMM:  10    -0.116391676631E+04    0.44649E-03   -0.28341E-05   329   0.126E-02
  13 F= -.11715816E+04 E0= -.11715741E+04  d E =-.260611E-01  mag=     0.2625
       N       E                     dE             d eps       ncg     rms          rms(c)
DAV:   1    -0.116376858968E+04    0.14862E+00   -0.57122E-01  1518   0.118E+00    0.194E-01
RMM:   2    -0.116384403350E+04   -0.75444E-01   -0.13925E-02  1246   0.246E-01    0.153E-01
RMM:   3    -0.116393816506E+04   -0.94132E-01   -0.67806E-02  1130   0.231E-01    0.114E-01
RMM:   4    -0.116393521487E+04    0.29502E-02   -0.69416E-02  1056   0.192E-01    0.929E-02
RMM:   5    -0.116395303906E+04   -0.17824E-01   -0.30818E-02  1043   0.119E-01    0.794E-02
RMM:   6    -0.116397582020E+04   -0.22781E-01   -0.40524E-02  1010   0.103E-01    0.117E-01
RMM:   7    -0.116395018579E+04    0.25634E-01   -0.46832E-02   960   0.977E-02    0.686E-02
RMM:   8    -0.116394917431E+04    0.10115E-02   -0.29015E-03   867   0.406E-02    0.748E-02
RMM:   9    -0.116392888803E+04    0.20286E-01   -0.22534E-02   863   0.718E-02    0.504E-02
RMM:  10    -0.116390971217E+04    0.19176E-01   -0.14697E-02   918   0.716E-02    0.390E-02
RMM:  11    -0.116390130036E+04    0.84118E-02   -0.38566E-03   886   0.506E-02    0.420E-02
RMM:  12    -0.116388806783E+04    0.13233E-01   -0.99636E-03   887   0.698E-02    0.401E-02
RMM:  13    -0.116388440760E+04    0.36602E-02   -0.88651E-04   754   0.429E-02    0.445E-02
RMM:  14    -0.116388245900E+04    0.19486E-02   -0.31837E-04   607   0.260E-02    0.460E-02
RMM:  15    -0.116388218100E+04    0.27801E-03   -0.12490E-04   521   0.191E-02
  14 F= -.11715470E+04 E0= -.11715396E+04  d E =0.852718E-02  mag=     0.2590
       N       E                     dE             d eps       ncg     rms          rms(c)
DAV:   1    -0.116357006175E+04    0.31240E+00   -0.19372E+00  1522   0.225E+00    0.361E-01
RMM:   2    -0.116372904339E+04   -0.15898E+00   -0.40912E-02  1825   0.458E-01    0.276E-01
RMM:   3    -0.116390578483E+04   -0.17674E+00   -0.52968E-02  1226   0.250E-01    0.191E-01
RMM:   4    -0.116388684214E+04    0.18943E-01   -0.10643E-01  1120   0.236E-01    0.133E-01
RMM:   5    -0.116391081069E+04   -0.23969E-01   -0.16163E-02  1043   0.126E-01    0.883E-02
RMM:   6    -0.116395094704E+04   -0.40136E-01   -0.15499E-02  1014   0.123E-01    0.784E-02
RMM:   7    -0.116395939400E+04   -0.84470E-02   -0.89182E-03   978   0.785E-02    0.902E-02
RMM:   8    -0.116393646520E+04    0.22929E-01   -0.33161E-02   965   0.963E-02    0.738E-02
RMM:   9    -0.116393154511E+04    0.49201E-02   -0.40049E-03   895   0.556E-02    0.757E-02
RMM:  10    -0.116392778119E+04    0.37639E-02   -0.15482E-03   807   0.369E-02    0.756E-02
RMM:  11    -0.116392421672E+04    0.35645E-02   -0.14228E-03   693   0.341E-02    0.740E-02
RMM:  12    -0.116390694563E+04    0.17271E-01   -0.98232E-03   803   0.580E-02    0.698E-02
RMM:  13    -0.116383608310E+04    0.70863E-01   -0.60436E-02  1085   0.156E-01    0.622E-02
RMM:  14    -0.116380956030E+04    0.26523E-01   -0.70387E-03   977   0.858E-02    0.719E-02
RMM:  15    -0.116375945364E+04    0.50107E-01   -0.12127E-02  1019   0.101E-01    0.898E-02
RMM:  16    -0.116384168234E+04   -0.82229E-01   -0.16763E-02   957   0.103E-01    0.582E-02
RMM:  17    -0.116390230832E+04   -0.60626E-01   -0.25865E-02  1024   0.109E-01    0.409E-02
RMM:  18    -0.116392971869E+04   -0.27410E-01   -0.22719E-02   971   0.950E-02    0.370E-02
RMM:  19    -0.116394420781E+04   -0.14489E-01   -0.12398E-02   915   0.671E-02    0.388E-02
RMM:  20    -0.116397140126E+04   -0.27193E-01   -0.10291E-01  1051   0.112E-01    0.518E-02
RMM:  21    -0.116399196392E+04   -0.20563E-01   -0.90118E-02   990   0.901E-02    0.117E-01
RMM:  22    -0.116396336199E+04    0.28602E-01   -0.11330E-01   848   0.125E-01    0.629E-02
RMM:  23    -0.116395880350E+04    0.45585E-02   -0.88156E-03   653   0.418E-02    0.629E-02
RMM:  24    -0.116395819156E+04    0.61193E-03   -0.10372E-03   563   0.274E-02
  15 F= -.11716228E+04 E0= -.11716154E+04  d E =-.672065E-01  mag=     0.2552
       N       E                     dE             d eps       ncg     rms          rms(c)
DAV:   1    -0.116368343150E+04    0.27537E+00   -0.84490E-01  1568   0.151E+00    0.250E-01
RMM:   2    -0.116381202314E+04   -0.12859E+00   -0.15303E-02  1490   0.302E-01    0.188E-01
RMM:   3    -0.116398969529E+04   -0.17767E+00   -0.17286E-01  1149   0.236E-01    0.155E-01
RMM:   4    -0.116401424638E+04   -0.24551E-01   -0.98545E-02  1000   0.161E-01    0.281E-01
RMM:   5    -0.116405892909E+04   -0.44683E-01   -0.22637E-01  1027   0.139E-01    0.526E-01
RMM:   6    -0.116409451754E+04   -0.35588E-01   -0.21730E-01   952   0.872E-02    0.106E+00
RMM:   7    -0.116399567922E+04    0.98838E-01   -0.21525E-01  1026   0.155E-01    0.268E-01
RMM:   8    -0.116397693397E+04    0.18745E-01   -0.35931E-02   970   0.800E-02    0.194E-01
RMM:   9    -0.116394048550E+04    0.36448E-01   -0.73075E-02  1044   0.108E-01    0.713E-02
RMM:  10    -0.116394849266E+04   -0.80072E-02   -0.13046E-02   919   0.630E-02    0.788E-02
RMM:  11    -0.116393419067E+04    0.14302E-01   -0.47470E-02   929   0.938E-02    0.442E-02
RMM:  12    -0.116393760314E+04   -0.34125E-02   -0.17393E-02   827   0.671E-02    0.345E-02
RMM:  13    -0.116393219785E+04    0.54053E-02   -0.16095E-02   736   0.586E-02    0.284E-02
RMM:  14    -0.116393300416E+04   -0.80631E-03   -0.29948E-03   623   0.358E-02
  16 F= -.11715978E+04 E0= -.11715904E+04  d E =-.422478E-01  mag=     0.2617
       N       E                     dE             d eps       ncg     rms          rms(c)
DAV:   1    -0.116391467923E+04    0.17519E-01   -0.14524E-01  1502   0.500E-01    0.759E-02
RMM:   2    -0.116394291416E+04   -0.28235E-01   -0.11832E-02   956   0.124E-01    0.698E-02
RMM:   3    -0.116395905518E+04   -0.16141E-01   -0.16271E-02   936   0.948E-02    0.854E-02
RMM:   4    -0.116395412848E+04    0.49267E-02   -0.23971E-03   874   0.545E-02    0.809E-02
RMM:   5    -0.116394131383E+04    0.12815E-01   -0.18415E-02   909   0.676E-02    0.587E-02
RMM:   6    -0.116394313704E+04   -0.18232E-02   -0.38593E-02   901   0.102E-01    0.469E-02
RMM:   7    -0.116393589672E+04    0.72403E-02   -0.10125E-02   865   0.674E-02    0.619E-02
RMM:   8    -0.116391261373E+04    0.23283E-01   -0.13043E-02   889   0.632E-02    0.565E-02
RMM:   9    -0.116389899133E+04    0.13622E-01   -0.67300E-03   864   0.549E-02    0.575E-02
RMM:  10    -0.116390341208E+04   -0.44208E-02   -0.89083E-04   674   0.364E-02    0.625E-02
RMM:  11    -0.116390400569E+04   -0.59361E-03   -0.15252E-04   539   0.197E-02
  17 F= -.11715689E+04 E0= -.11715615E+04  d E =0.289369E-01  mag=     0.2571
       N       E                     dE             d eps       ncg     rms          rms(c)
DAV:   1    -0.116377228357E+04    0.13113E+00   -0.68113E-01  1484   0.124E+00    0.200E-01
RMM:   2    -0.116384935413E+04   -0.77071E-01   -0.17488E-02  1334   0.265E-01    0.158E-01
RMM:   3    -0.116393687023E+04   -0.87516E-01   -0.54825E-02  1100   0.233E-01    0.115E-01
RMM:   4    -0.116392539973E+04    0.11470E-01   -0.62168E-02  1065   0.186E-01    0.887E-02
RMM:   5    -0.116394822345E+04   -0.22824E-01   -0.23990E-02  1020   0.115E-01    0.718E-02
RMM:   6    -0.116397055726E+04   -0.22334E-01   -0.24187E-02   998   0.982E-02    0.907E-02
RMM:   7    -0.116395024400E+04    0.20313E-01   -0.34934E-02   957   0.941E-02    0.608E-02
RMM:   8    -0.116394451623E+04    0.57278E-02   -0.48766E-03   875   0.464E-02    0.612E-02
RMM:   9    -0.116392669754E+04    0.17819E-01   -0.16937E-02   839   0.694E-02    0.494E-02
RMM:  10    -0.116391159975E+04    0.15098E-01   -0.89937E-03   867   0.631E-02    0.450E-02
RMM:  11    -0.116388382175E+04    0.27778E-01   -0.19094E-02   980   0.913E-02    0.436E-02
RMM:  12    -0.116386952467E+04    0.14297E-01   -0.50646E-03   927   0.679E-02    0.511E-02
RMM:  13    -0.116385632712E+04    0.13198E-01   -0.21875E-03   828   0.492E-02    0.573E-02
RMM:  14    -0.116386377760E+04   -0.74505E-02   -0.35726E-04   682   0.311E-02    0.565E-02
RMM:  15    -0.116386457177E+04   -0.79417E-03   -0.87976E-05   530   0.174E-02
  18 F= -.11715296E+04 E0= -.11715221E+04  d E =0.682580E-01  mag=     0.2586
       N       E                     dE             d eps       ncg     rms          rms(c)
DAV:   1    -0.116382638444E+04    0.37393E-01   -0.89638E-02  1484   0.440E-01    0.904E-02
RMM:   2    -0.116387073022E+04   -0.44346E-01   -0.45818E-03   938   0.108E-01    0.718E-02
RMM:   3    -0.116392063898E+04   -0.49909E-01   -0.21107E-02   991   0.116E-01    0.575E-02
RMM:   4    -0.116393884919E+04   -0.18210E-01   -0.40094E-02  1015   0.121E-01    0.615E-02
RMM:   5    -0.116392933944E+04    0.95097E-02   -0.77470E-03   873   0.703E-02    0.681E-02
RMM:   6    -0.116395153351E+04   -0.22194E-01   -0.33187E-02   952   0.841E-02    0.703E-02
RMM:   7    -0.116397197199E+04   -0.20438E-01   -0.53079E-02   943   0.852E-02    0.980E-02
RMM:   8    -0.116394813012E+04    0.23842E-01   -0.68474E-02   828   0.111E-01    0.489E-02
RMM:   9    -0.116395190737E+04   -0.37773E-02   -0.23855E-03   569   0.372E-02    0.634E-02
RMM:  10    -0.116392915162E+04    0.22756E-01   -0.20127E-02   741   0.676E-02    0.400E-02
RMM:  11    -0.116391224837E+04    0.16903E-01   -0.73007E-03   799   0.584E-02    0.393E-02
RMM:  12    -0.116389918486E+04    0.13064E-01   -0.35153E-03   796   0.461E-02    0.440E-02
RMM:  13    -0.116387859540E+04    0.20589E-01   -0.61642E-03   878   0.604E-02    0.464E-02
RMM:  14    -0.116386114274E+04    0.17453E-01   -0.38936E-03   846   0.541E-02    0.511E-02
RMM:  15    -0.116386230491E+04   -0.11622E-02   -0.23005E-04   629   0.299E-02    0.530E-02
RMM:  16    -0.116386237031E+04   -0.65398E-04   -0.10782E-04   498   0.173E-02
  19 F= -.11715275E+04 E0= -.11715201E+04  d E =0.206273E-02  mag=     0.2582
       N       E                     dE             d eps       ncg     rms          rms(c)
DAV:   1    -0.116366260698E+04    0.19970E+00   -0.63108E-01  1498   0.125E+00    0.226E-01
RMM:   2    -0.116377678484E+04   -0.11418E+00   -0.15664E-02  1343   0.263E-01    0.163E-01
RMM:   3    -0.116392011614E+04   -0.14333E+00   -0.48748E-02  1131   0.234E-01    0.105E-01
RMM:   4    -0.116392118827E+04   -0.10721E-02   -0.75274E-02  1089   0.192E-01    0.922E-02
RMM:   5    -0.116393073484E+04   -0.95466E-02   -0.10138E-02   975   0.102E-01    0.960E-02
RMM:   6    -0.116392407871E+04    0.66561E-02   -0.12853E-03   901   0.670E-02    0.102E-01
RMM:   7    -0.116394231251E+04   -0.18234E-01   -0.17421E-02   984   0.726E-02    0.900E-02
RMM:   8    -0.116397984053E+04   -0.37528E-01   -0.84996E-02  1095   0.112E-01    0.804E-02
RMM:   9    -0.116399457809E+04   -0.14738E-01   -0.43133E-02   958   0.823E-02    0.137E-01
RMM:  10    -0.116395944922E+04    0.35129E-01   -0.89025E-02   921   0.113E-01    0.694E-02
RMM:  11    -0.116395037464E+04    0.90746E-02   -0.13758E-02   792   0.526E-02    0.710E-02
RMM:  12    -0.116392835700E+04    0.22018E-01   -0.32380E-02   946   0.885E-02    0.485E-02
RMM:  13    -0.116389794829E+04    0.30409E-01   -0.25494E-02   993   0.989E-02    0.416E-02
RMM:  14    -0.116388823221E+04    0.97161E-02   -0.67540E-03   936   0.669E-02    0.494E-02
RMM:  15    -0.116388316904E+04    0.50632E-02   -0.56199E-03   865   0.641E-02    0.498E-02
RMM:  16    -0.116387694620E+04    0.62228E-02   -0.23671E-03   805   0.490E-02    0.514E-02
RMM:  17    -0.116386184563E+04    0.15101E-01   -0.34778E-03   791   0.523E-02    0.536E-02
RMM:  18    -0.116385247443E+04    0.93712E-02   -0.10726E-03   710   0.414E-02    0.553E-02
RMM:  19    -0.116384961287E+04    0.28616E-02   -0.30596E-04   614   0.284E-02    0.570E-02
RMM:  20    -0.116385277733E+04   -0.31645E-02   -0.94668E-05   524   0.188E-02    0.571E-02
RMM:  21    -0.116385261513E+04    0.16220E-03   -0.32174E-05   427   0.130E-02
  20 F= -.11715181E+04 E0= -.11715107E+04  d E =0.114786E-01  mag=     0.2565
       N       E                     dE             d eps       ncg     rms          rms(c)
DAV:   1    -0.116379983801E+04    0.52939E-01   -0.10349E-01  1468   0.487E-01    0.975E-02
RMM:   2    -0.116385336166E+04   -0.53524E-01   -0.49795E-03   947   0.117E-01    0.752E-02
RMM:   3    -0.116391635217E+04   -0.62991E-01   -0.25919E-02  1002   0.129E-01    0.577E-02
RMM:   4    -0.116393463922E+04   -0.18287E-01   -0.43541E-02  1024   0.126E-01    0.650E-02
RMM:   5    -0.116392537603E+04    0.92632E-02   -0.85596E-03   899   0.772E-02    0.721E-02
RMM:   6    -0.116394631117E+04   -0.20935E-01   -0.28292E-02   955   0.829E-02    0.719E-02
RMM:   7    -0.116396101628E+04   -0.14705E-01   -0.20028E-02   904   0.711E-02    0.842E-02
RMM:   8    -0.116395269622E+04    0.83201E-02   -0.75971E-03   746   0.537E-02    0.793E-02
RMM:   9    -0.116393552022E+04    0.17176E-01   -0.20323E-02   695   0.692E-02    0.582E-02
RMM:  10    -0.116392166620E+04    0.13854E-01   -0.65049E-03   698   0.516E-02    0.527E-02
RMM:  11    -0.116388061690E+04    0.41049E-01   -0.22262E-02   949   0.960E-02    0.506E-02
RMM:  12    -0.116385435446E+04    0.26262E-01   -0.61806E-03   891   0.706E-02    0.650E-02
RMM:  13    -0.116385746032E+04   -0.31059E-02   -0.47844E-04   758   0.386E-02    0.677E-02
RMM:  14    -0.116385738737E+04    0.72956E-04   -0.15767E-04   554   0.197E-02
  21 F= -.11715230E+04 E0= -.11715156E+04  d E =0.660724E-02  mag=     0.2546
       N       E                     dE             d eps       ncg     rms          rms(c)
DAV:   1    -0.116380544391E+04    0.52016E-01   -0.11000E-01  1492   0.515E-01    0.108E-01
RMM:   2    -0.116385635645E+04   -0.50913E-01   -0.40257E-03   939   0.125E-01    0.870E-02
RMM:   3    -0.116392327705E+04   -0.66921E-01   -0.30949E-02  1013   0.138E-01    0.623E-02
RMM:   4    -0.116393941194E+04   -0.16135E-01   -0.62730E-02  1055   0.132E-01    0.682E-02
RMM:   5    -0.116393340294E+04    0.60090E-02   -0.48558E-03   899   0.702E-02    0.818E-02
RMM:   6    -0.116395461796E+04   -0.21215E-01   -0.41203E-02  1009   0.870E-02    0.832E-02
RMM:   7    -0.116398224729E+04   -0.27629E-01   -0.75521E-02  1012   0.952E-02    0.112E-01
RMM:   8    -0.116397448464E+04    0.77626E-02   -0.12330E-02   859   0.646E-02    0.118E-01
RMM:   9    -0.116395822696E+04    0.16258E-01   -0.34655E-02   713   0.743E-02    0.756E-02
RMM:  10    -0.116397206706E+04   -0.13840E-01   -0.11960E-02   611   0.531E-02    0.105E-01
RMM:  11    -0.116395844346E+04    0.13624E-01   -0.20351E-02   620   0.569E-02    0.660E-02
RMM:  12    -0.116394608991E+04    0.12354E-01   -0.99713E-03   732   0.520E-02    0.506E-02
RMM:  13    -0.116392148429E+04    0.24606E-01   -0.13484E-02   796   0.653E-02    0.385E-02
RMM:  14    -0.116387475368E+04    0.46731E-01   -0.20255E-02   942   0.910E-02    0.399E-02
RMM:  15    -0.116386835422E+04    0.63995E-02   -0.13895E-03   787   0.457E-02    0.498E-02
RMM:  16    -0.116386616516E+04    0.21891E-02   -0.36242E-04   567   0.267E-02    0.516E-02
RMM:  17    -0.116386597613E+04    0.18903E-03   -0.15034E-04   491   0.182E-02
  22 F= -.11715314E+04 E0= -.11715240E+04  d E =-.844044E-02  mag=     0.2572
       N       E                     dE             d eps       ncg     rms          rms(c)
DAV:   1    -0.116386662977E+04   -0.46461E-03   -0.27606E-04   984   0.256E-02    0.548E-02
RMM:   2    -0.116389496456E+04   -0.28335E-01   -0.13501E-03   647   0.292E-02    0.465E-02
RMM:   3    -0.116395003880E+04   -0.55074E-01   -0.32708E-02   896   0.840E-02    0.433E-02
RMM:   4    -0.116394559643E+04    0.44424E-02   -0.19449E-03   731   0.409E-02    0.474E-02
RMM:   5    -0.116396279249E+04   -0.17196E-01   -0.27519E-02   775   0.681E-02    0.628E-02
RMM:   6    -0.116391959749E+04    0.43195E-01   -0.91093E-02   846   0.146E-01    0.248E-02
RMM:   7    -0.116390314208E+04    0.16455E-01   -0.61066E-03   737   0.670E-02    0.365E-02
RMM:   8    -0.116389326385E+04    0.98782E-02   -0.26833E-03   693   0.487E-02    0.418E-02
RMM:   9    -0.116389656787E+04   -0.33040E-02   -0.38268E-04   521   0.278E-02    0.437E-02
RMM:  10    -0.116389438065E+04    0.21872E-02   -0.13459E-04   415   0.168E-02    0.440E-02
RMM:  11    -0.116389463022E+04   -0.24956E-03   -0.41114E-05   352   0.121E-02
  23 F= -.11715600E+04 E0= -.11715527E+04  d E =-.370913E-01  mag=     0.2557
       N       E                     dE             d eps       ncg     rms          rms(c)
DAV:   1    -0.116389627603E+04   -0.18954E-02   -0.22240E-04   960   0.269E-02    0.442E-02
RMM:   2    -0.116391149771E+04   -0.15222E-01   -0.16170E-03   686   0.333E-02    0.415E-02
RMM:   3    -0.116393628283E+04   -0.24785E-01   -0.14216E-02   788   0.647E-02    0.407E-02
RMM:   4    -0.116393943890E+04   -0.31561E-02   -0.13746E-03   609   0.316E-02    0.431E-02
RMM:   5    -0.116394281666E+04   -0.33778E-02   -0.74085E-04   552   0.275E-02    0.474E-02
RMM:   6    -0.116394632412E+04   -0.35075E-02   -0.14249E-03   567   0.288E-02    0.464E-02
RMM:   7    -0.116394558290E+04    0.74122E-03   -0.13110E-04   446   0.216E-02
  24 F= -.11716110E+04 E0= -.11716036E+04  d E =-.880374E-01  mag=     0.2541
       N       E                     dE             d eps       ncg     rms          rms(c)
DAV:   1    -0.116394447121E+04    0.18529E-02   -0.10701E-02  1046   0.754E-02    0.449E-02
RMM:   2    -0.116395324969E+04   -0.87785E-02   -0.47017E-03   820   0.488E-02    0.503E-02
RMM:   3    -0.116393544105E+04    0.17809E-01   -0.12198E-02   717   0.626E-02    0.372E-02
RMM:   4    -0.116392535574E+04    0.10085E-01   -0.61701E-03   782   0.510E-02    0.430E-02
RMM:   5    -0.116390670485E+04    0.18651E-01   -0.71823E-03   845   0.629E-02    0.510E-02
RMM:   6    -0.116391019173E+04   -0.34869E-02   -0.50484E-04   687   0.437E-02    0.531E-02
RMM:   7    -0.116391002992E+04    0.16181E-03   -0.10462E-04   467   0.204E-02
  25 F= -.11715754E+04 E0= -.11715681E+04  d E =-.524712E-01  mag=     0.2539
       N       E                     dE             d eps       ncg     rms          rms(c)
DAV:   1    -0.116390397083E+04    0.62209E-02   -0.64462E-03  1214   0.100E-01    0.582E-02
RMM:   2    -0.116391900040E+04   -0.15030E-01   -0.23204E-03   859   0.492E-02    0.531E-02
RMM:   3    -0.116394699725E+04   -0.27997E-01   -0.48138E-02   983   0.111E-01    0.463E-02
RMM:   4    -0.116395536127E+04   -0.83640E-02   -0.16176E-02   914   0.638E-02    0.614E-02
RMM:   5    -0.116393484548E+04    0.20516E-01   -0.45395E-02   765   0.108E-01    0.417E-02
RMM:   6    -0.116391437973E+04    0.20466E-01   -0.17125E-02   800   0.868E-02    0.430E-02
RMM:   7    -0.116389988556E+04    0.14494E-01   -0.46226E-03   766   0.599E-02    0.493E-02
RMM:   8    -0.116389044900E+04    0.94366E-02   -0.16990E-03   729   0.444E-02    0.535E-02
RMM:   9    -0.116388851537E+04    0.19336E-02   -0.28173E-04   563   0.285E-02    0.550E-02
RMM:  10    -0.116388861425E+04   -0.98875E-04   -0.10501E-04   470   0.180E-02
  26 F= -.11715540E+04 E0= -.11715467E+04  d E =-.310287E-01  mag=     0.2525
       N       E                     dE             d eps       ncg     rms          rms(c)
DAV:   1    -0.116387590730E+04    0.12608E-01   -0.17725E-02  1388   0.183E-01    0.639E-02
RMM:   2    -0.116390040017E+04   -0.24493E-01   -0.29700E-03   889   0.633E-02    0.577E-02
RMM:   3    -0.116393611302E+04   -0.35713E-01   -0.30310E-02   968   0.105E-01    0.496E-02
RMM:   4    -0.116395208118E+04   -0.15968E-01   -0.50276E-02  1011   0.101E-01    0.603E-02
RMM:   5    -0.116393170814E+04    0.20373E-01   -0.43355E-02   820   0.112E-01    0.514E-02
RMM:   6    -0.116390337946E+04    0.28329E-01   -0.29815E-02   848   0.108E-01    0.460E-02
RMM:   7    -0.116389311368E+04    0.10266E-01   -0.29570E-03   690   0.559E-02    0.526E-02
RMM:   8    -0.116391176548E+04   -0.18652E-01   -0.37670E-03   602   0.416E-02    0.520E-02
RMM:   9    -0.116391752111E+04   -0.57556E-02   -0.12487E-03   544   0.336E-02    0.517E-02
RMM:  10    -0.116391848484E+04   -0.96373E-03   -0.14297E-04   441   0.209E-02
  27 F= -.11715838E+04 E0= -.11715765E+04  d E =-.608444E-01  mag=     0.2521
       N       E                     dE             d eps       ncg     rms          rms(c)
DAV:   1    -0.116388389582E+04    0.33625E-01   -0.65359E-02  1450   0.359E-01    0.791E-02
RMM:   2    -0.116391382130E+04   -0.29925E-01   -0.51365E-03   922   0.992E-02    0.705E-02
RMM:   3    -0.116394541580E+04   -0.31594E-01   -0.21498E-02   953   0.106E-01    0.663E-02
RMM:   4    -0.116395669151E+04   -0.11276E-01   -0.14518E-02   932   0.844E-02    0.763E-02
RMM:   5    -0.116394551113E+04    0.11180E-01   -0.27410E-02   861   0.889E-02    0.672E-02
RMM:   6    -0.116392822408E+04    0.17287E-01   -0.43385E-03   804   0.541E-02    0.786E-02
RMM:   7    -0.116391909286E+04    0.91312E-02   -0.38241E-03   762   0.446E-02    0.784E-02
RMM:   8    -0.116392145192E+04   -0.23591E-02   -0.44809E-04   584   0.307E-02    0.813E-02
RMM:   9    -0.116392051645E+04    0.93547E-03   -0.20248E-04   448   0.174E-02
  28 F= -.11715857E+04 E0= -.11715785E+04  d E =-.627610E-01  mag=     0.2516
       N       E                     dE             d eps       ncg     rms          rms(c)
DAV:   1    -0.116388512758E+04    0.36324E-01   -0.25944E-02  1440   0.233E-01    0.104E-01
RMM:   2    -0.116391685147E+04   -0.31724E-01   -0.35177E-03   906   0.685E-02    0.903E-02
RMM:   3    -0.116400077174E+04   -0.83920E-01   -0.28149E-01  1092   0.126E-01    0.106E-01
RMM:   4    -0.116395395485E+04    0.46817E-01   -0.27423E-01  1018   0.183E-01    0.680E-02
RMM:   5    -0.116392592346E+04    0.28031E-01   -0.30013E-02   920   0.769E-02    0.548E-02
RMM:   6    -0.116392250333E+04    0.34201E-02   -0.33337E-03   693   0.406E-02    0.582E-02
RMM:   7    -0.116389524601E+04    0.27257E-01   -0.20062E-02   835   0.826E-02    0.411E-02
RMM:   8    -0.116387172732E+04    0.23519E-01   -0.11654E-02   848   0.785E-02    0.431E-02
RMM:   9    -0.116385959023E+04    0.12137E-01   -0.25596E-03   778   0.487E-02    0.503E-02
RMM:  10    -0.116384968885E+04    0.99014E-02   -0.18164E-03   719   0.421E-02    0.552E-02
RMM:  11    -0.116384213990E+04    0.75489E-02   -0.74010E-04   662   0.333E-02    0.591E-02
RMM:  12    -0.116383487309E+04    0.72668E-02   -0.81967E-04   638   0.318E-02    0.616E-02
RMM:  13    -0.116383076234E+04    0.41108E-02   -0.24156E-04   576   0.252E-02    0.632E-02
RMM:  14    -0.116383020772E+04    0.55462E-03   -0.81676E-05   462   0.178E-02
  29 F= -.11714955E+04 E0= -.11714882E+04  d E =0.274697E-01  mag=     0.2527
       N       E                     dE             d eps       ncg     rms          rms(c)
DAV:   1    -0.116381225106E+04    0.18511E-01   -0.52459E-02  1508   0.362E-01    0.833E-02
RMM:   2    -0.116385649226E+04   -0.44241E-01   -0.32739E-03   922   0.913E-02    0.680E-02
RMM:   3    -0.116391448804E+04   -0.57996E-01   -0.27734E-02   985   0.120E-01    0.521E-02
RMM:   4    -0.116393534252E+04   -0.20854E-01   -0.38513E-02  1008   0.112E-01    0.618E-02
RMM:   5    -0.116392364438E+04    0.11698E-01   -0.83570E-03   875   0.735E-02    0.673E-02
RMM:   6    -0.116393824644E+04   -0.14602E-01   -0.13333E-02   814   0.611E-02    0.718E-02
RMM:   7    -0.116392689029E+04    0.11356E-01   -0.87618E-03   705   0.630E-02    0.674E-02
RMM:   8    -0.116391680748E+04    0.10083E-01   -0.80189E-03   672   0.585E-02    0.588E-02
RMM:   9    -0.116388967017E+04    0.27137E-01   -0.21307E-02   902   0.989E-02    0.525E-02
RMM:  10    -0.116385313585E+04    0.36534E-01   -0.11736E-02   951   0.897E-02    0.705E-02
RMM:  11    -0.116388723312E+04   -0.34097E-01   -0.65657E-03   841   0.679E-02    0.615E-02
RMM:  12    -0.116390533194E+04   -0.18099E-01   -0.46702E-03   771   0.565E-02    0.504E-02
RMM:  13    -0.116392040683E+04   -0.15075E-01   -0.51362E-03   827   0.593E-02    0.397E-02
RMM:  14    -0.116393643605E+04   -0.16029E-01   -0.92749E-03   903   0.651E-02    0.319E-02
RMM:  15    -0.116396097945E+04   -0.24543E-01   -0.60922E-02  1029   0.103E-01    0.402E-02
RMM:  16    -0.116397030911E+04   -0.93297E-02   -0.22642E-02   884   0.755E-02    0.698E-02
RMM:  17    -0.116397415986E+04   -0.38507E-02   -0.76698E-03   769   0.514E-02    0.836E-02
RMM:  18    -0.116397210087E+04    0.20590E-02   -0.98940E-04   655   0.350E-02    0.850E-02
RMM:  19    -0.116396630622E+04    0.57947E-02   -0.60751E-03   588   0.355E-02    0.737E-02
RMM:  20    -0.116396375969E+04    0.25465E-02   -0.34553E-03   579   0.318E-02    0.646E-02
RMM:  21    -0.116395929874E+04    0.44610E-02   -0.58488E-03   608   0.384E-02    0.516E-02
RMM:  22    -0.116395410508E+04    0.51937E-02   -0.53741E-03   658   0.431E-02    0.448E-02
RMM:  23    -0.116394945501E+04    0.46501E-02   -0.33288E-03   639   0.411E-02    0.426E-02
RMM:  24    -0.116393944419E+04    0.10011E-01   -0.53785E-03   758   0.493E-02    0.414E-02
RMM:  25    -0.116393354863E+04    0.58956E-02   -0.18068E-03   663   0.408E-02    0.399E-02
RMM:  26    -0.116392441629E+04    0.91323E-02   -0.23931E-03   695   0.404E-02    0.419E-02
RMM:  27    -0.116392003196E+04    0.43843E-02   -0.80926E-04   618   0.329E-02    0.435E-02
RMM:  28    -0.116391725787E+04    0.27741E-02   -0.38188E-04   553   0.251E-02    0.443E-02
RMM:  29    -0.116391572441E+04    0.15335E-02   -0.21440E-04   509   0.216E-02    0.454E-02
RMM:  30    -0.116391569440E+04    0.30004E-04   -0.53884E-05   393   0.146E-02
  30 F= -.11715808E+04 E0= -.11715735E+04  d E =-.852908E-01  mag=     0.2518
       N       E                     dE             d eps       ncg     rms          rms(c)
DAV:   1    -0.116385472133E+04    0.61003E-01   -0.15382E-01  1516   0.581E-01    0.979E-02
RMM:   2    -0.116389724207E+04   -0.42521E-01   -0.63975E-03   953   0.133E-01    0.768E-02
RMM:   3    -0.116394917989E+04   -0.51938E-01   -0.32989E-02  1009   0.144E-01    0.634E-02
RMM:   4    -0.116396098620E+04   -0.11806E-01   -0.23663E-02   976   0.116E-01    0.721E-02
RMM:   5    -0.116395183539E+04    0.91508E-02   -0.82980E-03   900   0.699E-02    0.732E-02
RMM:   6    -0.116394998952E+04    0.18459E-02   -0.60690E-04   809   0.364E-02    0.755E-02
RMM:   7    -0.116395301944E+04   -0.30299E-02   -0.72766E-04   657   0.257E-02    0.783E-02
RMM:   8    -0.116395147743E+04    0.15420E-02   -0.12307E-03   577   0.263E-02    0.780E-02
RMM:   9    -0.116392685332E+04    0.24624E-01   -0.22338E-02   869   0.749E-02    0.813E-02
RMM:  10    -0.116391962127E+04    0.72320E-02   -0.54411E-03   802   0.549E-02    0.841E-02
RMM:  11    -0.116390747918E+04    0.12142E-01   -0.48614E-03   764   0.544E-02    0.875E-02
RMM:  12    -0.116389812695E+04    0.93522E-02   -0.23895E-03   705   0.482E-02    0.884E-02
RMM:  13    -0.116390460973E+04   -0.64828E-02   -0.59653E-04   567   0.290E-02    0.868E-02
RMM:  14    -0.116391335914E+04   -0.87494E-02   -0.14723E-03   548   0.277E-02    0.813E-02
RMM:  15    -0.116394235534E+04   -0.28996E-01   -0.27985E-02   956   0.874E-02    0.661E-02
RMM:  16    -0.116396060071E+04   -0.18245E-01   -0.42042E-02   977   0.890E-02    0.534E-02
RMM:  17    -0.116397545918E+04   -0.14858E-01   -0.37544E-02   941   0.721E-02    0.764E-02
RMM:  18    -0.116398470722E+04   -0.92480E-02   -0.19780E-02   811   0.576E-02    0.101E-01
RMM:  19    -0.116397503213E+04    0.96751E-02   -0.12810E-02   739   0.565E-02    0.873E-02
RMM:  20    -0.116395799086E+04    0.17041E-01   -0.42563E-02   781   0.803E-02    0.560E-02
RMM:  21    -0.116396241101E+04   -0.44202E-02   -0.14351E-03   536   0.344E-02    0.626E-02
RMM:  22    -0.116395042622E+04    0.11985E-01   -0.12584E-02   693   0.551E-02    0.503E-02
RMM:  23    -0.116394169915E+04    0.87271E-02   -0.33149E-03   645   0.422E-02    0.459E-02
RMM:  24    -0.116393249518E+04    0.92040E-02   -0.26590E-03   669   0.382E-02    0.440E-02
RMM:  25    -0.116392717172E+04    0.53235E-02   -0.10450E-03   573   0.316E-02    0.376E-02
RMM:  26    -0.116392462485E+04    0.25469E-02   -0.56921E-04   534   0.253E-02    0.365E-02
RMM:  27    -0.116392303307E+04    0.15918E-02   -0.29697E-04   480   0.218E-02    0.376E-02
RMM:  28    -0.116392120281E+04    0.18303E-02   -0.23085E-04   474   0.181E-02    0.360E-02
RMM:  29    -0.116391757175E+04    0.36311E-02   -0.43644E-04   532   0.206E-02    0.366E-02
RMM:  30    -0.116391303532E+04    0.45364E-02   -0.79631E-04   580   0.244E-02    0.366E-02
RMM:  31    -0.116390881315E+04    0.42222E-02   -0.60904E-04   581   0.246E-02    0.382E-02
RMM:  32    -0.116391026070E+04   -0.14475E-02   -0.78210E-05   421   0.176E-02    0.378E-02
RMM:  33    -0.116391002562E+04    0.23508E-03   -0.29815E-05   321   0.114E-02
  31 F= -.11715748E+04 E0= -.11715674E+04  d E =-.793019E-01  mag=     0.2543
       N       E                     dE             d eps       ncg     rms          rms(c)
DAV:   1    -0.116387929892E+04    0.30962E-01   -0.12212E-01  1476   0.520E-01    0.845E-02
RMM:   2    -0.116391205634E+04   -0.32757E-01   -0.51003E-03   938   0.122E-01    0.671E-02
RMM:   3    -0.116394575666E+04   -0.33700E-01   -0.18294E-02   956   0.112E-01    0.567E-02
RMM:   4    -0.116396001615E+04   -0.14259E-01   -0.24419E-02   973   0.107E-01    0.590E-02
RMM:   5    -0.116395735995E+04    0.26562E-02   -0.12897E-03   843   0.483E-02    0.633E-02
RMM:   6    -0.116396708276E+04   -0.97228E-02   -0.16071E-02   854   0.598E-02    0.712E-02
RMM:   7    -0.116395985500E+04    0.72278E-02   -0.51311E-03   685   0.498E-02    0.644E-02
RMM:   8    -0.116395794759E+04    0.19074E-02   -0.24967E-03   585   0.318E-02    0.620E-02
RMM:   9    -0.116393451675E+04    0.23431E-01   -0.18958E-02   872   0.674E-02    0.463E-02
RMM:  10    -0.116392242934E+04    0.12087E-01   -0.60556E-03   823   0.524E-02    0.550E-02
RMM:  11    -0.116392532561E+04   -0.28963E-02   -0.33913E-04   630   0.292E-02    0.571E-02
RMM:  12    -0.116392613057E+04   -0.80495E-03   -0.92127E-05   425   0.159E-02
  32 F= -.11715907E+04 E0= -.11715834E+04  d E =-.159495E-01  mag=     0.2545
