       N       E                     dE             d eps       ncg     rms          rms(c)
DAV:   1     0.469706093220E+04    0.46971E+04   -0.17531E+05  1908   0.910E+02
DAV:   2    -0.105705108676E+03   -0.48028E+04   -0.43870E+04  2520   0.206E+02
DAV:   3    -0.119029565656E+04   -0.10846E+04   -0.10783E+04  2124   0.106E+02
DAV:   4    -0.123299338780E+04   -0.42698E+02   -0.42488E+02  2016   0.277E+01
DAV:   5    -0.123409145021E+04   -0.10981E+01   -0.10954E+01  2376   0.409E+00    0.670E+01
RMM:   6    -0.122206941510E+04    0.12022E+02   -0.36032E+01  1585   0.573E+00    0.553E+01
RMM:   7    -0.120355882201E+04    0.18511E+02   -0.69313E+00  1584   0.292E+00    0.446E+01
RMM:   8    -0.118278618951E+04    0.20773E+02   -0.34061E+01  1584   0.671E+00    0.371E+01
RMM:   9    -0.116546951300E+04    0.17317E+02   -0.20230E+01  1584   0.509E+00    0.227E+01
RMM:  10    -0.116458555275E+04    0.88396E+00   -0.10488E+01  1584   0.373E+00    0.116E+01
RMM:  11    -0.116544256995E+04   -0.85702E+00   -0.54799E+00  1584   0.268E+00    0.795E+00
RMM:  12    -0.116468294168E+04    0.75963E+00   -0.24949E+00  1584   0.173E+00    0.387E+00
RMM:  13    -0.116462872818E+04    0.54214E-01   -0.12858E-01  1596   0.399E-01    0.392E+00
RMM:  14    -0.116449316348E+04    0.13556E+00   -0.20683E-01  1584   0.430E-01    0.167E+00
RMM:  15    -0.116446806084E+04    0.25103E-01   -0.85635E-02  1584   0.324E-01    0.100E+00
RMM:  16    -0.116446237801E+04    0.56828E-02   -0.11753E-02  1604   0.119E-01    0.707E-01
RMM:  17    -0.116446110322E+04    0.12748E-02   -0.21560E-03  1550   0.476E-02    0.583E-01
RMM:  18    -0.116445980469E+04    0.12985E-02   -0.20954E-03  1579   0.436E-02    0.373E-01
RMM:  19    -0.116445880201E+04    0.10027E-02   -0.17194E-03  1469   0.381E-02    0.211E-01
RMM:  20    -0.116445840456E+04    0.39745E-03   -0.82252E-04  1276   0.266E-02    0.101E-01
RMM:  21    -0.116445837378E+04    0.30780E-04   -0.23466E-04  1085   0.151E-02
   1 F= -.11715162E+04 E0= -.11715162E+04  d E =-.117152E+04  mag=     0.9919
       N       E                     dE             d eps       ncg     rms          rms(c)
DAV:   1    -0.116445291987E+04    0.54847E-02   -0.13800E+00  1620   0.194E+00    0.488E-01
RMM:   2    -0.116445846486E+04   -0.55450E-02   -0.59833E-02  1584   0.308E-01    0.503E-01
RMM:   3    -0.116445817956E+04    0.28530E-03   -0.31280E-03  1610   0.565E-02    0.495E-01
RMM:   4    -0.116445788100E+04    0.29856E-03   -0.32859E-04  1136   0.228E-02    0.419E-01
RMM:   5    -0.116445757968E+04    0.30132E-03   -0.34643E-03  1584   0.659E-02    0.133E-01
RMM:   6    -0.116445767985E+04   -0.10017E-03   -0.37176E-04  1213   0.232E-02    0.110E-01
RMM:   7    -0.116445751262E+04    0.16723E-03   -0.39770E-04  1267   0.207E-02    0.595E-02
RMM:   8    -0.116445751014E+04    0.24789E-05   -0.66585E-05  1014   0.104E-02
   2 F= -.11715154E+04 E0= -.11715154E+04  d E =0.844316E-03  mag=     1.0002
       N       E                     dE             d eps       ncg     rms          rms(c)
DAV:   1    -0.116445867204E+04   -0.11594E-02   -0.44736E-01  1692   0.110E+00    0.284E-01
RMM:   2    -0.116446029464E+04   -0.16226E-02   -0.18272E-02  1584   0.170E-01    0.295E-01
RMM:   3    -0.116446017674E+04    0.11790E-03   -0.85075E-04  1235   0.298E-02    0.291E-01
RMM:   4    -0.116446009432E+04    0.82411E-04   -0.10069E-04  1038   0.139E-02
   3 F= -.11715180E+04 E0= -.11715180E+04  d E =-.172879E-02  mag=     1.0000
       N       E                     dE             d eps       ncg     rms          rms(c)
DAV:   1    -0.116445679746E+04    0.33793E-02   -0.80680E-01  1728   0.149E+00    0.262E-01
RMM:   2    -0.116446048513E+04   -0.36877E-02   -0.38384E-02  1584   0.232E-01    0.261E-01
RMM:   3    -0.116446018966E+04    0.29546E-03   -0.15195E-03  1318   0.398E-02    0.250E-01
RMM:   4    -0.116446005344E+04    0.13623E-03   -0.43307E-04  1250   0.250E-02    0.169E-01
RMM:   5    -0.116446001527E+04    0.38165E-04   -0.70222E-04  1488   0.305E-02
   4 F= -.11715173E+04 E0= -.11715173E+04  d E =0.635211E-03  mag=     1.0000
       N       E                     dE             d eps       ncg     rms          rms(c)
DAV:   1    -0.116445976725E+04    0.28619E-03   -0.26135E-01  1764   0.851E-01    0.164E-01
RMM:   2    -0.116446092312E+04   -0.11559E-02   -0.12292E-02  1584   0.131E-01    0.162E-01
RMM:   3    -0.116446081027E+04    0.11285E-03   -0.45846E-04  1121   0.223E-02    0.152E-01
RMM:   4    -0.116446072840E+04    0.81866E-04   -0.42058E-04  1283   0.237E-02
   5 F= -.11715184E+04 E0= -.11715184E+04  d E =-.395484E-03  mag=     1.0000
