       N       E                     dE             d eps       ncg     rms          rms(c)
DAV:   1     0.494068199160E+04    0.49407E+04   -0.17139E+05  1836   0.913E+02
DAV:   2    -0.503203340399E+02   -0.49910E+04   -0.45645E+04  2556   0.208E+02
DAV:   3    -0.118720956170E+04   -0.11369E+04   -0.11307E+04  2124   0.110E+02
DAV:   4    -0.123191919680E+04   -0.44710E+02   -0.44455E+02  2052   0.287E+01
DAV:   5    -0.123306343897E+04   -0.11442E+01   -0.11411E+01  2304   0.423E+00    0.666E+01
RMM:   6    -0.121676382241E+04    0.16300E+02   -0.26923E+01  1584   0.520E+00    0.559E+01
RMM:   7    -0.120331668343E+04    0.13447E+02   -0.67266E+00  1584   0.288E+00    0.445E+01
RMM:   8    -0.118732716958E+04    0.15990E+02   -0.11781E+01  1584   0.396E+00    0.351E+01
RMM:   9    -0.116869804978E+04    0.18629E+02   -0.26556E+01  1584   0.593E+00    0.226E+01
RMM:  10    -0.116514184889E+04    0.35562E+01   -0.10331E+01  1584   0.372E+00    0.160E+01
RMM:  11    -0.116643374167E+04   -0.12919E+01   -0.88522E+00  1584   0.342E+00    0.795E+00
RMM:  12    -0.116604044886E+04    0.39329E+00   -0.47757E-01  1617   0.847E-01    0.538E+00
RMM:  13    -0.116566049018E+04    0.37996E+00   -0.16582E+00  1584   0.143E+00    0.229E+00
RMM:  14    -0.116560313073E+04    0.57359E-01   -0.10938E-01  1610   0.360E-01    0.116E+00
RMM:  15    -0.116560066980E+04    0.24609E-02   -0.26230E-02  1596   0.164E-01    0.511E-01
RMM:  16    -0.116560205711E+04   -0.13873E-02   -0.50440E-03  1584   0.824E-02    0.428E-01
RMM:  17    -0.116560214335E+04   -0.86246E-04   -0.17198E-03  1525   0.456E-02    0.382E-01
RMM:  18    -0.116560217929E+04   -0.35939E-04   -0.18699E-03  1297   0.410E-02    0.358E-01
RMM:  19    -0.116560203333E+04    0.14597E-03   -0.35735E-04  1075   0.181E-02    0.350E-01
RMM:  20    -0.116560024603E+04    0.17873E-02   -0.13964E-02  1584   0.956E-02    0.272E-01
RMM:  21    -0.116560069927E+04   -0.45325E-03   -0.19084E-03  1205   0.363E-02    0.214E-01
RMM:  22    -0.116560076600E+04   -0.66722E-04   -0.23487E-03  1584   0.536E-02    0.781E-02
RMM:  23    -0.116560096841E+04   -0.20242E-03   -0.17498E-04  1044   0.143E-02    0.756E-02
RMM:  24    -0.116560117963E+04   -0.21121E-03   -0.86992E-04  1081   0.219E-02    0.541E-02
RMM:  25    -0.116560141161E+04   -0.23198E-03   -0.12195E-03  1091   0.247E-02    0.529E-02
RMM:  26    -0.116560160718E+04   -0.19557E-03   -0.40646E-04  1041   0.149E-02    0.434E-02
RMM:  27    -0.116560168142E+04   -0.74249E-04   -0.67109E-04  1017   0.172E-02
   1 F= -.11727297E+04 E0= -.11727297E+04  d E =-.117273E+04  mag=     1.0014
       N       E                     dE             d eps       ncg     rms          rms(c)
DAV:   1    -0.116559806114E+04    0.35460E-02   -0.22223E+00  1692   0.216E+00    0.588E-01
RMM:   2    -0.116560147082E+04   -0.34097E-02   -0.49791E-02  1584   0.293E-01    0.601E-01
RMM:   3    -0.116560146467E+04    0.61546E-05   -0.29141E-03  1656   0.605E-02    0.584E-01
RMM:   4    -0.116560033089E+04    0.11338E-02   -0.23760E-03  1588   0.572E-02    0.367E-01
RMM:   5    -0.116559998833E+04    0.34256E-03   -0.33446E-03  1584   0.660E-02    0.211E-01
RMM:   6    -0.116560008004E+04   -0.91711E-04   -0.20544E-04  1092   0.182E-02
   2 F= -.11727294E+04 E0= -.11727294E+04  d E =0.289778E-03  mag=     1.0000
       N       E                     dE             d eps       ncg     rms          rms(c)
DAV:   1    -0.116560428697E+04   -0.42986E-02   -0.61538E-01  1800   0.114E+00    0.312E-01
RMM:   2    -0.116560500702E+04   -0.72005E-03   -0.12343E-02  1584   0.148E-01    0.316E-01
RMM:   3    -0.116560493433E+04    0.72692E-04   -0.66030E-04  1271   0.296E-02
   3 F= -.11727335E+04 E0= -.11727335E+04  d E =-.388011E-02  mag=     1.0000
       N       E                     dE             d eps       ncg     rms          rms(c)
DAV:   1    -0.116559958605E+04    0.54210E-02   -0.11006E+00  1656   0.162E+00    0.423E-01
RMM:   2    -0.116560122083E+04   -0.16348E-02   -0.27890E-02  1584   0.243E-01    0.363E-01
RMM:   3    -0.116559999002E+04    0.12308E-02   -0.16039E-03  1604   0.518E-02    0.295E-01
RMM:   4    -0.116559828306E+04    0.17070E-02   -0.40764E-03  1584   0.734E-02    0.165E-01
RMM:   5    -0.116559808172E+04    0.20134E-03   -0.13063E-03  1584   0.426E-02    0.955E-02
RMM:   6    -0.116559805026E+04    0.31464E-04   -0.20089E-04  1083   0.183E-02
   4 F= -.11727264E+04 E0= -.11727264E+04  d E =0.711748E-02  mag=     1.0000
       N       E                     dE             d eps       ncg     rms          rms(c)
DAV:   1    -0.116560524429E+04   -0.71626E-02   -0.64163E-01  1728   0.124E+00    0.281E-01
RMM:   2    -0.116560631199E+04   -0.10677E-02   -0.16451E-02  1584   0.187E-01    0.233E-01
RMM:   3    -0.116560583336E+04    0.47864E-03   -0.82656E-04  1441   0.375E-02    0.191E-01
RMM:   4    -0.116560516916E+04    0.66420E-03   -0.15332E-03  1583   0.455E-02    0.124E-01
RMM:   5    -0.116560510623E+04    0.62930E-04   -0.30698E-04  1170   0.220E-02
   5 F= -.11727336E+04 E0= -.11727336E+04  d E =-.113108E-03  mag=     1.0000
