       N       E                     dE             d eps       ncg     rms          rms(c)
DAV:   1     0.491744785556E+04    0.49174E+04   -0.16982E+05  1836   0.907E+02
DAV:   2    -0.489835800387E+02   -0.49664E+04   -0.45183E+04  2520   0.209E+02
DAV:   3    -0.119444789299E+04   -0.11455E+04   -0.11391E+04  2160   0.111E+02
DAV:   4    -0.124122875073E+04   -0.46781E+02   -0.46552E+02  2052   0.300E+01
DAV:   5    -0.124252135867E+04   -0.12926E+01   -0.12894E+01  2340   0.468E+00    0.707E+01
RMM:   6    -0.122146738145E+04    0.21054E+02   -0.21884E+01  1597   0.513E+00    0.531E+01
RMM:   7    -0.119983931979E+04    0.21628E+02   -0.19202E+01  1588   0.527E+00    0.386E+01
RMM:   8    -0.117532136030E+04    0.24518E+02   -0.38419E+01  1584   0.729E+00    0.246E+01
RMM:   9    -0.117231809807E+04    0.30033E+01   -0.35805E+01  1584   0.697E+00    0.102E+01
RMM:  10    -0.117293580811E+04   -0.61771E+00   -0.22100E+00  1617   0.250E+00    0.782E+00
RMM:  11    -0.117197115095E+04    0.96466E+00   -0.95695E-01  1584   0.113E+00    0.496E+00
RMM:  12    -0.117181315171E+04    0.15800E+00   -0.73237E-01  1584   0.106E+00    0.119E+00
RMM:  13    -0.117178115558E+04    0.31996E-01   -0.91518E-02  1648   0.424E-01    0.626E-01
RMM:  14    -0.117178086790E+04    0.28769E-03   -0.14125E-02  1651   0.154E-01    0.503E-01
RMM:  15    -0.117178160526E+04   -0.73736E-03   -0.69662E-03  1584   0.102E-01    0.443E-01
RMM:  16    -0.117178068590E+04    0.91936E-03   -0.30984E-03  1603   0.753E-02    0.252E-01
RMM:  17    -0.117178032360E+04    0.36230E-03   -0.41748E-03  1584   0.772E-02    0.122E-01
RMM:  18    -0.117178033811E+04   -0.14511E-04   -0.40373E-04  1263   0.390E-02
   1 F= -.11790886E+04 E0= -.11790886E+04  d E =-.117909E+04  mag=    -0.0060
       N       E                     dE             d eps       ncg     rms          rms(c)
DAV:   1    -0.117177882089E+04    0.15027E-02   -0.37393E-01  1728   0.958E-01    0.248E-01
RMM:   2    -0.117177966141E+04   -0.84052E-03   -0.11278E-02  1585   0.156E-01    0.320E-01
RMM:   3    -0.117177974893E+04   -0.87521E-04   -0.82916E-04  1476   0.469E-02
   2 F= -.11790884E+04 E0= -.11790884E+04  d E =0.252839E-03  mag=    -0.0020
       N       E                     dE             d eps       ncg     rms          rms(c)
DAV:   1    -0.117178048217E+04   -0.82077E-03   -0.11123E-01  1656   0.522E-01    0.258E-01
RMM:   2    -0.117178077403E+04   -0.29186E-03   -0.33162E-03  1584   0.845E-02    0.154E-01
RMM:   3    -0.117178079745E+04   -0.23415E-04   -0.21158E-04  1086   0.257E-02
   3 F= -.11790893E+04 E0= -.11790893E+04  d E =-.612828E-03  mag=     0.0006
