       N       E                     dE             d eps       ncg     rms          rms(c)
DAV:   1     0.504471137502E+04    0.50447E+04   -0.17175E+05  1800   0.918E+02
DAV:   2    -0.135978485852E+02   -0.50583E+04   -0.46268E+04  2520   0.212E+02
DAV:   3    -0.117939647881E+04   -0.11658E+04   -0.11611E+04  2088   0.113E+02
DAV:   4    -0.122863483393E+04   -0.49238E+02   -0.49011E+02  2016   0.306E+01
DAV:   5    -0.122991632938E+04   -0.12815E+01   -0.12787E+01  2376   0.457E+00    0.607E+01
RMM:   6    -0.121778650775E+04    0.12130E+02   -0.77977E+00  1584   0.340E+00    0.494E+01
RMM:   7    -0.117977655978E+04    0.38010E+02   -0.59004E+01  1584   0.901E+00    0.324E+01
RMM:   8    -0.117444386725E+04    0.53327E+01   -0.60327E+00  1593   0.303E+00    0.259E+01
RMM:   9    -0.116752457267E+04    0.69193E+01   -0.35242E+01  1584   0.691E+00    0.130E+01
RMM:  10    -0.116883696010E+04   -0.13124E+01   -0.53109E+00  1593   0.303E+00    0.984E+00
RMM:  11    -0.116734852756E+04    0.14884E+01   -0.29925E+00  1584   0.173E+00    0.445E+00
RMM:  12    -0.116722535234E+04    0.12318E+00   -0.27790E-01  1597   0.648E-01    0.286E+00
RMM:  13    -0.116708584670E+04    0.13951E+00   -0.62976E-01  1584   0.947E-01    0.107E+00
RMM:  14    -0.116708349868E+04    0.23480E-02   -0.45662E-02  1595   0.282E-01    0.699E-01
RMM:  15    -0.116708533065E+04   -0.18320E-02   -0.25562E-02  1585   0.172E-01    0.535E-01
RMM:  16    -0.116708319700E+04    0.21336E-02   -0.33630E-03  1573   0.700E-02    0.350E-01
RMM:  17    -0.116708331261E+04   -0.11560E-03   -0.14966E-03  1422   0.475E-02    0.292E-01
RMM:  18    -0.116708324192E+04    0.70687E-04   -0.10178E-03  1258   0.314E-02    0.176E-01
RMM:  19    -0.116708325946E+04   -0.17545E-04   -0.13145E-03  1326   0.341E-02    0.806E-02
RMM:  20    -0.116708329313E+04   -0.33663E-04   -0.14005E-04  1038   0.149E-02
   1 F= -.11741615E+04 E0= -.11741615E+04  d E =-.117416E+04  mag=     0.9995
       N       E                     dE             d eps       ncg     rms          rms(c)
DAV:   1    -0.116708356408E+04   -0.30461E-03   -0.31039E-01  1692   0.901E-01    0.189E-01
RMM:   2    -0.116708393571E+04   -0.37164E-03   -0.94263E-03  1586   0.136E-01    0.176E-01
RMM:   3    -0.116708349187E+04    0.44384E-03   -0.60669E-04  1422   0.352E-02    0.151E-01
RMM:   4    -0.116708267662E+04    0.81525E-03   -0.22367E-03  1584   0.526E-02    0.640E-02
RMM:   5    -0.116708263839E+04    0.38230E-04   -0.19959E-04  1080   0.192E-02
   2 F= -.11741611E+04 E0= -.11741611E+04  d E =0.384685E-03  mag=     1.0000
       N       E                     dE             d eps       ncg     rms          rms(c)
DAV:   1    -0.116708429338E+04   -0.16168E-02   -0.95770E-02  1656   0.496E-01    0.104E-01
RMM:   2    -0.116708430037E+04   -0.69900E-05   -0.22413E-03  1584   0.715E-02    0.961E-02
RMM:   3    -0.116708410126E+04    0.19911E-03   -0.14094E-04  1047   0.182E-02    0.786E-02
RMM:   4    -0.116708383294E+04    0.26833E-03   -0.85268E-04  1578   0.327E-02    0.319E-02
RMM:   5    -0.116708382541E+04    0.75277E-05   -0.47428E-05   997   0.108E-02
   3 F= -.11741621E+04 E0= -.11741621E+04  d E =-.653230E-03  mag=     1.0000
