       N       E                     dE             d eps       ncg     rms          rms(c)
DAV:   1     0.460119210209E+04    0.46012E+04   -0.17304E+05  1908   0.901E+02
DAV:   2    -0.124961288316E+03   -0.47262E+04   -0.42854E+04  2520   0.203E+02
DAV:   3    -0.119313813469E+04   -0.10682E+04   -0.10641E+04  2160   0.105E+02
DAV:   4    -0.123461700676E+04   -0.41479E+02   -0.41294E+02  2052   0.272E+01
DAV:   5    -0.123567993587E+04   -0.10629E+01   -0.10611E+01  2340   0.403E+00    0.811E+01
RMM:   6    -0.122343241462E+04    0.12248E+02   -0.69268E+00  1584   0.299E+00    0.713E+01
RMM:   7    -0.117744160896E+04    0.45991E+02   -0.81070E+01  1584   0.101E+01    0.448E+01
RMM:   8    -0.117182461613E+04    0.56170E+01   -0.46428E+01  1584   0.767E+00    0.207E+01
RMM:   9    -0.117420201281E+04   -0.23774E+01   -0.89921E+00  1588   0.345E+00    0.123E+01
RMM:  10    -0.117188745793E+04    0.23146E+01   -0.39702E+00  1584   0.210E+00    0.438E+00
RMM:  11    -0.117156224281E+04    0.32522E+00   -0.75742E-01  1584   0.970E-01    0.233E+00
RMM:  12    -0.117148284568E+04    0.79397E-01   -0.29892E-01  1584   0.588E-01    0.855E-01
RMM:  13    -0.117148643444E+04   -0.35888E-02   -0.19830E-02  1589   0.176E-01    0.464E-01
RMM:  14    -0.117148876286E+04   -0.23284E-02   -0.74249E-03  1584   0.928E-02    0.447E-01
RMM:  15    -0.117148748478E+04    0.12781E-02   -0.12337E-02  1584   0.120E-01    0.263E-01
RMM:  16    -0.117148736068E+04    0.12410E-03   -0.67209E-04  1363   0.307E-02    0.144E-01
RMM:  17    -0.117148731809E+04    0.42587E-04   -0.59820E-04  1535   0.268E-02
   1 F= -.11788113E+04 E0= -.11788040E+04  d E =-.117881E+04  mag=    -0.7461
       N       E                     dE             d eps       ncg     rms          rms(c)
DAV:   1    -0.117148520003E+04    0.21606E-02   -0.37034E-01  1692   0.968E-01    0.551E-01
RMM:   2    -0.117148613373E+04   -0.93370E-03   -0.11606E-02  1584   0.147E-01    0.501E-01
RMM:   3    -0.117148587011E+04    0.26362E-03   -0.83761E-04  1472   0.358E-02    0.390E-01
RMM:   4    -0.117148590777E+04   -0.37652E-04   -0.22377E-03  1572   0.489E-02    0.112E-01
RMM:   5    -0.117148576562E+04    0.14214E-03   -0.91314E-05  1042   0.113E-02    0.620E-02
RMM:   6    -0.117148572746E+04    0.38162E-04   -0.24883E-04  1097   0.144E-02
   2 F= -.11788100E+04 E0= -.11788028E+04  d E =0.126839E-02  mag=    -0.7544
       N       E                     dE             d eps       ncg     rms          rms(c)
DAV:   1    -0.117148766228E+04   -0.18967E-02   -0.16565E-01  1656   0.645E-01    0.359E-01
RMM:   2    -0.117148794721E+04   -0.28493E-03   -0.42142E-03  1585   0.933E-02    0.324E-01
RMM:   3    -0.117148778678E+04    0.16043E-03   -0.32052E-04  1171   0.232E-02    0.247E-01
RMM:   4    -0.117148780398E+04   -0.17205E-04   -0.11996E-03  1550   0.363E-02    0.741E-02
RMM:   5    -0.117148772396E+04    0.80024E-04   -0.60115E-05  1021   0.932E-03
   3 F= -.11788118E+04 E0= -.11788046E+04  d E =-.512499E-03  mag=    -0.7539
