       N       E                     dE             d eps       ncg     rms          rms(c)
DAV:   1     0.482946624794E+04    0.48295E+04   -0.17126E+05  1872   0.902E+02
DAV:   2    -0.592938556381E+02   -0.48888E+04   -0.44366E+04  2520   0.204E+02
DAV:   3    -0.118977911582E+04   -0.11305E+04   -0.11261E+04  2088   0.108E+02
DAV:   4    -0.123605684729E+04   -0.46278E+02   -0.46029E+02  2052   0.289E+01
DAV:   5    -0.123723421702E+04   -0.11774E+01   -0.11741E+01  2268   0.425E+00    0.626E+01
RMM:   6    -0.122000908654E+04    0.17225E+02   -0.91374E+00  1588   0.328E+00    0.512E+01
RMM:   7    -0.118881431227E+04    0.31195E+02   -0.10870E+02  1600   0.103E+01    0.324E+01
RMM:   8    -0.117691034114E+04    0.11904E+02   -0.50020E+00  1644   0.254E+00    0.278E+01
RMM:   9    -0.117082978682E+04    0.60806E+01   -0.13053E+01  1588   0.379E+00    0.197E+01
RMM:  10    -0.117319965973E+04   -0.23699E+01   -0.21396E+01  1584   0.513E+00    0.118E+01
RMM:  11    -0.116887441347E+04    0.43252E+01   -0.27045E+00  1655   0.165E+00    0.812E+00
RMM:  12    -0.116799321075E+04    0.88120E+00   -0.13311E+00  1615   0.944E-01    0.611E+00
RMM:  13    -0.116775274817E+04    0.24046E+00   -0.17471E-01  1629   0.401E-01    0.530E+00
RMM:  14    -0.116751297513E+04    0.23977E+00   -0.90732E-01  1584   0.996E-01    0.300E+00
RMM:  15    -0.116754574319E+04   -0.32768E-01   -0.25321E-01  1586   0.555E-01    0.274E+00
RMM:  16    -0.116737273440E+04    0.17301E+00   -0.52729E-02  1613   0.213E-01    0.215E+00
RMM:  17    -0.116732203949E+04    0.50695E-01   -0.10953E-01  1590   0.233E-01    0.192E+00
RMM:  18    -0.116732619836E+04   -0.41589E-02   -0.66300E-03  1693   0.683E-02    0.199E+00
RMM:  19    -0.116734263306E+04   -0.16435E-01   -0.14381E-03  1247   0.267E-02    0.212E+00
RMM:  20    -0.116739111883E+04   -0.48486E-01   -0.30897E-02  1584   0.124E-01    0.246E+00
RMM:  21    -0.116745868876E+04   -0.67570E-01   -0.91622E-03  1584   0.835E-02    0.235E+00
RMM:  22    -0.116747183321E+04   -0.13144E-01   -0.13939E-03  1241   0.270E-02    0.229E+00
RMM:  23    -0.116754860750E+04   -0.76774E-01   -0.90067E-03  1578   0.739E-02    0.193E+00
RMM:  24    -0.116653171364E+04    0.10169E+01   -0.82779E-01  1590   0.737E-01    0.108E+00
RMM:  25    -0.116650588585E+04    0.25828E-01   -0.29825E-02  1550   0.120E-01    0.107E+00
RMM:  26    -0.116562775463E+04    0.87813E+00   -0.16262E-01  1560   0.352E-01    0.123E+00
RMM:  27    -0.116593095315E+04   -0.30320E+00   -0.11168E-02  1352   0.979E-02    0.116E+00
RMM:  28    -0.116614074806E+04   -0.20979E+00   -0.99016E-03  1504   0.102E-01    0.114E+00
RMM:  29    -0.116707398838E+04   -0.93324E+00   -0.24997E-01  1597   0.409E-01    0.108E+00
RMM:  30    -0.116759788148E+04   -0.52389E+00   -0.71829E-01  1585   0.491E-01    0.139E+00
RMM:  31    -0.116743913330E+04    0.15875E+00   -0.16996E-01  1586   0.173E-01    0.200E+00
RMM:  32    -0.116732794518E+04    0.11119E+00   -0.65388E-02  1589   0.133E-01    0.121E+00
RMM:  33    -0.116739249946E+04   -0.64554E-01   -0.72701E-02  1495   0.717E-02    0.166E+00
RMM:  34    -0.116739126880E+04    0.12307E-02   -0.49875E-03  1181   0.255E-02    0.166E+00
RMM:  35    -0.116739959254E+04   -0.83237E-02   -0.49677E-04  1098   0.138E-02    0.166E+00
RMM:  36    -0.116740696863E+04   -0.73761E-02   -0.18798E-04  1075   0.928E-03    0.164E+00
RMM:  37    -0.116736442151E+04    0.42547E-01   -0.29290E-03  1238   0.289E-02    0.170E+00
RMM:  38    -0.116736890592E+04   -0.44844E-02   -0.79422E-05  1048   0.849E-03    0.170E+00
RMM:  39    -0.116738308080E+04   -0.14175E-01   -0.18177E-02  1584   0.107E-01    0.180E+00
RMM:  40    -0.116749832084E+04   -0.11524E+00   -0.21319E-02  1559   0.865E-02    0.161E+00
RMM:  41    -0.116760909384E+04   -0.11077E+00   -0.12804E-01  1585   0.290E-01    0.677E-01
RMM:  42    -0.116691276049E+04    0.69633E+00   -0.54920E-01  1570   0.571E-01    0.653E-01
RMM:  43    -0.116728776965E+04   -0.37501E+00   -0.58089E-02  1407   0.210E-01    0.485E-01
RMM:  44    -0.116687388989E+04    0.41388E+00   -0.11851E-01  1488   0.288E-01    0.624E-01
RMM:  45    -0.116702579802E+04   -0.15191E+00   -0.25854E-02  1460   0.156E-01    0.568E-01
RMM:  46    -0.116682057804E+04    0.20522E+00   -0.41627E-02  1429   0.182E-01    0.677E-01
RMM:  47    -0.116684636904E+04   -0.25791E-01   -0.11702E-03  1178   0.291E-02    0.659E-01
RMM:  48    -0.116678866609E+04    0.57703E-01   -0.20355E-02  1403   0.138E-01    0.719E-01
RMM:  49    -0.116682547837E+04   -0.36812E-01   -0.13287E-03  1201   0.365E-02    0.691E-01
RMM:  50    -0.116701820982E+04   -0.19273E+00   -0.25194E-02  1348   0.134E-01    0.568E-01
RMM:  51    -0.116724592549E+04   -0.22772E+00   -0.55798E-02  1412   0.184E-01    0.448E-01
RMM:  52    -0.116745509008E+04   -0.20916E+00   -0.84024E-02  1375   0.211E-01    0.368E-01
RMM:  53    -0.116759853749E+04   -0.14345E+00   -0.13927E-01  1374   0.230E-01    0.357E-01
RMM:  54    -0.116763432067E+04   -0.35783E-01   -0.91628E-02  1408   0.159E-01    0.459E-01
RMM:  55    -0.116763279245E+04    0.15282E-02   -0.25619E-02  1390   0.813E-02    0.640E-01
RMM:  56    -0.116763207118E+04    0.72127E-03   -0.77566E-03  1268   0.565E-02    0.669E-01
RMM:  57    -0.116762388456E+04    0.81866E-02   -0.17347E-03  1210   0.252E-02    0.797E-01
RMM:  58    -0.116757410201E+04    0.49783E-01   -0.10021E-02  1468   0.695E-02    0.127E+00
RMM:  59    -0.116751206550E+04    0.62037E-01   -0.89200E-03  1420   0.601E-02    0.164E+00
RMM:  60    -0.116748681793E+04    0.25248E-01   -0.21237E-03  1222   0.267E-02    0.176E+00
RMM:  61    -0.116742184802E+04    0.64970E-01   -0.10186E-01  1583   0.185E-01    0.119E+00
RMM:  62    -0.116738730788E+04    0.34540E-01   -0.58160E-03  1281   0.446E-02    0.130E+00
RMM:  63    -0.116738444167E+04    0.28662E-02   -0.84368E-04  1194   0.230E-02    0.128E+00
RMM:  64    -0.116737466928E+04    0.97724E-02   -0.19873E-04  1080   0.130E-02    0.128E+00
RMM:  65    -0.116734386214E+04    0.30807E-01   -0.38394E-03  1367   0.403E-02    0.791E-01
RMM:  66    -0.116735171366E+04   -0.78515E-02   -0.45095E-03  1463   0.518E-02    0.116E+00
RMM:  67    -0.116745684121E+04   -0.10513E+00   -0.12163E-02  1441   0.690E-02    0.177E+00
RMM:  68    -0.116750282016E+04   -0.45979E-01   -0.44494E-03  1299   0.402E-02    0.158E+00
RMM:  69    -0.116754320198E+04   -0.40382E-01   -0.39888E-03  1308   0.368E-02    0.139E+00
RMM:  70    -0.116759928942E+04   -0.56087E-01   -0.87746E-03  1388   0.577E-02    0.987E-01
RMM:  71    -0.116760745200E+04   -0.81626E-02   -0.12105E-03  1154   0.205E-02    0.917E-01
RMM:  72    -0.116761333434E+04   -0.58823E-02   -0.23555E-03  1213   0.458E-02    0.838E-01
RMM:  73    -0.116761873291E+04   -0.53986E-02   -0.17482E-03  1194   0.386E-02    0.793E-01
RMM:  74    -0.116761436152E+04    0.43714E-02   -0.41953E-03  1226   0.564E-02    0.814E-01
RMM:  75    -0.116759743194E+04    0.16930E-01   -0.68769E-03  1296   0.761E-02    0.918E-01
RMM:  76    -0.116757789741E+04    0.19535E-01   -0.10443E-02  1345   0.931E-02    0.918E-01
RMM:  77    -0.116757775617E+04    0.14124E-03   -0.41170E-04  1112   0.144E-02    0.924E-01
RMM:  78    -0.116757916734E+04   -0.14112E-02   -0.15521E-04   910   0.123E-02    0.935E-01
RMM:  79    -0.116758272934E+04   -0.35620E-02   -0.26408E-03  1211   0.457E-02    0.981E-01
RMM:  80    -0.116758105160E+04    0.16777E-02   -0.14814E-04   967   0.105E-02    0.100E+00
RMM:  81    -0.116763546820E+04   -0.54417E-01   -0.35345E-02  1574   0.163E-01    0.519E-01
RMM:  82    -0.116763834628E+04   -0.28781E-02   -0.14439E-03  1220   0.310E-02    0.456E-01
RMM:  83    -0.116762383383E+04    0.14512E-01   -0.23442E-03  1288   0.378E-02    0.719E-01
RMM:  84    -0.116761201682E+04    0.11817E-01   -0.13194E-03  1207   0.316E-02    0.867E-01
RMM:  85    -0.116760774830E+04    0.42685E-02   -0.26727E-04  1088   0.130E-02    0.910E-01
RMM:  86    -0.116763392259E+04   -0.26174E-01   -0.41616E-03  1324   0.463E-02    0.553E-01
RMM:  87    -0.116763207535E+04    0.18472E-02   -0.25176E-02  1417   0.124E-01    0.255E-01
RMM:  88    -0.116759425343E+04    0.37822E-01   -0.50797E-02  1334   0.159E-01    0.198E-01
RMM:  89    -0.116755314638E+04    0.41107E-01   -0.30870E-02  1289   0.124E-01    0.189E-01
RMM:  90    -0.116749826132E+04    0.54885E-01   -0.23768E-02  1256   0.113E-01    0.204E-01
RMM:  91    -0.116741882469E+04    0.79437E-01   -0.23847E-02  1281   0.119E-01    0.234E-01
RMM:  92    -0.116736513050E+04    0.53694E-01   -0.89985E-03  1250   0.735E-02    0.246E-01
RMM:  93    -0.116726389070E+04    0.10124E+00   -0.16619E-02  1281   0.104E-01    0.281E-01
RMM:  94    -0.116713942321E+04    0.12447E+00   -0.17746E-02  1320   0.111E-01    0.329E-01
RMM:  95    -0.116684044373E+04    0.29898E+00   -0.61455E-02  1364   0.206E-01    0.490E-01
RMM:  96    -0.116728869889E+04   -0.44826E+00   -0.10932E-01  1389   0.254E-01    0.262E-01
RMM:  97    -0.116727727095E+04    0.11428E-01   -0.15172E-03  1059   0.286E-02    0.268E-01
RMM:  98    -0.116726411356E+04    0.13157E-01   -0.22033E-04   822   0.147E-02    0.276E-01
RMM:  99    -0.116721751743E+04    0.46596E-01   -0.23036E-03  1021   0.410E-02    0.300E-01
RMM: 100    -0.116721733634E+04    0.18108E-03   -0.59451E-05   702   0.694E-03
   1 F= -.11744573E+04 E0= -.11744573E+04  d E =-.117446E+04  mag=    -2.0610
       N       E                     dE             d eps       ncg     rms          rms(c)
DAV:   1    -0.116701280855E+04    0.20471E+00   -0.37724E+00  1620   0.289E+00    0.677E-01
RMM:   2    -0.116728677374E+04   -0.27397E+00   -0.28997E-01  1638   0.598E-01    0.549E-01
RMM:   3    -0.116750551269E+04   -0.21874E+00   -0.98353E-02  1666   0.284E-01    0.424E-01
RMM:   4    -0.116762961543E+04   -0.12410E+00   -0.25434E-01  1586   0.298E-01    0.275E-01
RMM:   5    -0.116763290820E+04   -0.32928E-02   -0.25919E-02  1605   0.753E-02    0.214E-01
RMM:   6    -0.116763266669E+04    0.24151E-03   -0.24990E-03  1457   0.364E-02    0.156E-01
RMM:   7    -0.116763261865E+04    0.48035E-04   -0.61540E-04  1259   0.251E-02
   2 F= -.11748722E+04 E0= -.11748722E+04  d E =-.414958E+00  mag=    -1.9996
       N       E                     dE             d eps       ncg     rms          rms(c)
DAV:   1    -0.116764048968E+04   -0.78230E-02   -0.13494E+00  1836   0.172E+00    0.327E-01
RMM:   2    -0.116764795845E+04   -0.74688E-02   -0.86084E-02  1680   0.331E-01    0.277E-01
RMM:   3    -0.116764702168E+04    0.93677E-03   -0.48472E-03  1689   0.688E-02    0.236E-01
RMM:   4    -0.116764561073E+04    0.14110E-02   -0.34039E-03  1586   0.637E-02    0.122E-01
RMM:   5    -0.116764551451E+04    0.96218E-04   -0.78171E-04  1543   0.318E-02
   3 F= -.11748853E+04 E0= -.11748853E+04  d E =-.428041E+00  mag=    -2.0000
       N       E                     dE             d eps       ncg     rms          rms(c)
DAV:   1    -0.116763652767E+04    0.90831E-02   -0.99227E-01  1728   0.157E+00    0.344E-01
RMM:   2    -0.116764118052E+04   -0.46528E-02   -0.52196E-02  1677   0.291E-01    0.289E-01
RMM:   3    -0.116764073238E+04    0.44814E-03   -0.28136E-03  1687   0.580E-02    0.245E-01
RMM:   4    -0.116763996359E+04    0.76879E-03   -0.36448E-03  1576   0.677E-02    0.102E-01
RMM:   5    -0.116764007532E+04   -0.11173E-03   -0.18117E-04  1101   0.177E-02    0.751E-02
RMM:   6    -0.116764012277E+04   -0.47446E-04   -0.26742E-04  1147   0.176E-02
   4 F= -.11748819E+04 E0= -.11748819E+04  d E =0.341893E-02  mag=    -2.0000
       N       E                     dE             d eps       ncg     rms          rms(c)
DAV:   1    -0.116764501479E+04   -0.49395E-02   -0.42017E-01  1728   0.102E+00    0.207E-01
RMM:   2    -0.116764695767E+04   -0.19429E-02   -0.22377E-02  1678   0.188E-01    0.175E-01
RMM:   3    -0.116764667875E+04    0.27892E-03   -0.11672E-03  1393   0.381E-02    0.148E-01
RMM:   4    -0.116764632178E+04    0.35697E-03   -0.16305E-03  1552   0.455E-02    0.657E-02
RMM:   5    -0.116764631703E+04    0.47480E-05   -0.95625E-05  1066   0.133E-02
   5 F= -.11748868E+04 E0= -.11748868E+04  d E =-.149551E-02  mag=    -2.0000
       N       E                     dE             d eps       ncg     rms          rms(c)
DAV:   1    -0.116764352633E+04    0.27955E-02   -0.36318E-01  1656   0.831E-01    0.224E-01
RMM:   2    -0.116764633902E+04   -0.28127E-02   -0.30479E-02  1704   0.172E-01    0.178E-01
RMM:   3    -0.116764618654E+04    0.15248E-03   -0.16211E-03  1324   0.357E-02    0.139E-01
RMM:   4    -0.116764608679E+04    0.99747E-04   -0.89549E-04  1443   0.303E-02
   6 F= -.11748877E+04 E0= -.11748877E+04  d E =-.888522E-03  mag=    -2.0000
       N       E                     dE             d eps       ncg     rms          rms(c)
DAV:   1    -0.116764630782E+04   -0.12128E-03   -0.13642E-02  1764   0.161E-01    0.485E-02
RMM:   2    -0.116764642443E+04   -0.11661E-03   -0.11182E-03  1266   0.332E-02    0.334E-02
RMM:   3    -0.116764642746E+04   -0.30372E-05   -0.10986E-04  1060   0.114E-02
   7 F= -.11748878E+04 E0= -.11748878E+04  d E =-.101418E-02  mag=    -2.0000
       N       E                     dE             d eps       ncg     rms          rms(c)
DAV:   1    -0.116764494038E+04    0.14840E-02   -0.28798E-01  1656   0.813E-01    0.163E-01
RMM:   2    -0.116764651137E+04   -0.15710E-02   -0.17267E-02  1694   0.149E-01    0.135E-01
RMM:   3    -0.116764638664E+04    0.12473E-03   -0.87922E-04  1280   0.313E-02    0.110E-01
RMM:   4    -0.116764629264E+04    0.94002E-04   -0.70183E-04  1475   0.293E-02
   8 F= -.11748880E+04 E0= -.11748880E+04  d E =-.194056E-03  mag=    -2.0000
       N       E                     dE             d eps       ncg     rms          rms(c)
DAV:   1    -0.116764648840E+04   -0.10176E-03   -0.47424E-02  1764   0.329E-01    0.606E-02
RMM:   2    -0.116764675999E+04   -0.27160E-03   -0.28305E-03  1661   0.609E-02    0.454E-02
RMM:   3    -0.116764674082E+04    0.19175E-04   -0.15468E-04  1071   0.139E-02
   9 F= -.11748883E+04 E0= -.11748883E+04  d E =-.508673E-03  mag=    -2.0000
