       N       E                     dE             d eps       ncg     rms          rms(c)
DAV:   1     0.496772425232E+04    0.49677E+04   -0.16988E+05  1760   0.936E+02
DAV:   2    -0.347449362334E+02   -0.50025E+04   -0.45714E+04  2432   0.217E+02
DAV:   3    -0.120025342684E+04   -0.11655E+04   -0.11557E+04  2016   0.115E+02
DAV:   4    -0.125096604295E+04   -0.50713E+02   -0.50431E+02  1952   0.322E+01
DAV:   5    -0.125243996130E+04   -0.14739E+01   -0.14705E+01  2304   0.537E+00    0.759E+01
RMM:   6    -0.124522226886E+04    0.72177E+01   -0.90152E+01  1658   0.143E+01    0.761E+01
RMM:   7    -0.122135599274E+04    0.23866E+02   -0.13678E+01  1539   0.634E+00    0.519E+01
RMM:   8    -0.120817009753E+04    0.13186E+02   -0.13545E+01  1579   0.465E+00    0.464E+01
RMM:   9    -0.118174041285E+04    0.26430E+02   -0.43225E+01  1734   0.876E+00    0.270E+01
RMM:  10    -0.117666975462E+04    0.50707E+01   -0.69959E+00  1577   0.415E+00    0.208E+01
RMM:  11    -0.117380379792E+04    0.28660E+01   -0.17467E+01  1663   0.527E+00    0.126E+01
RMM:  12    -0.117405397000E+04   -0.25017E+00   -0.32249E+00  1642   0.276E+00    0.862E+00
RMM:  13    -0.117393447897E+04    0.11949E+00   -0.89717E-01  1771   0.151E+00    0.610E+00
RMM:  14    -0.117356348271E+04    0.37100E+00   -0.95004E-01  1539   0.114E+00    0.354E+00
RMM:  15    -0.117348515993E+04    0.78323E-01   -0.20039E-01  1592   0.649E-01    0.257E+00
RMM:  16    -0.117339365568E+04    0.91504E-01   -0.16944E-01  1559   0.486E-01    0.107E+00
RMM:  17    -0.117340302841E+04   -0.93727E-02   -0.39542E-02  1747   0.288E-01    0.962E-01
RMM:  18    -0.117340120828E+04    0.18201E-02   -0.46516E-03  1559   0.120E-01    0.716E-01
RMM:  19    -0.117339987558E+04    0.13327E-02   -0.36752E-03  1594   0.796E-02    0.409E-01
RMM:  20    -0.117339965528E+04    0.22029E-03   -0.25621E-03  1566   0.634E-02    0.216E-01
RMM:  21    -0.117339935222E+04    0.30307E-03   -0.97412E-04  1541   0.417E-02    0.159E-01
RMM:  22    -0.117339934055E+04    0.11661E-04   -0.61544E-04  1562   0.327E-02    0.128E-01
RMM:  23    -0.117339923312E+04    0.10743E-03   -0.21213E-04  1563   0.202E-02    0.622E-02
RMM:  24    -0.117339922149E+04    0.11631E-04   -0.95897E-05  1701   0.121E-02    0.329E-02
RMM:  25    -0.117339921895E+04    0.25417E-05   -0.28630E-05  1590   0.746E-03    0.175E-02
RMM:  26    -0.117339921447E+04    0.44862E-05   -0.13315E-05  1569   0.453E-03    0.110E-02
RMM:  27    -0.117339921329E+04    0.11783E-05   -0.51867E-06  1311   0.310E-03    0.532E-03
RMM:  28    -0.117339921317E+04    0.11779E-06   -0.13574E-06  1051   0.203E-03
   1 F= -.11805127E+04 E0= -.11805127E+04  d E =-.118051E+04  mag=     0.0000
       N       E                     dE             d eps       ncg     rms          rms(c)
DAV:   1    -0.117339840164E+04    0.81164E-03   -0.39961E-01  1600   0.105E+00    0.161E-01
RMM:   2    -0.117339917467E+04   -0.77303E-03   -0.10306E-02  1584   0.164E-01    0.145E-01
RMM:   3    -0.117339922657E+04   -0.51900E-04   -0.23889E-03  1861   0.734E-02    0.131E-01
RMM:   4    -0.117339892309E+04    0.30348E-03   -0.65151E-04  1607   0.366E-02    0.813E-02
RMM:   5    -0.117339887439E+04    0.48702E-04   -0.55693E-04  1586   0.309E-02    0.486E-02
RMM:   6    -0.117339887109E+04    0.33012E-05   -0.12453E-04  1968   0.175E-02    0.414E-02
RMM:   7    -0.117339885258E+04    0.18506E-04   -0.31554E-05  1536   0.727E-03    0.239E-02
RMM:   8    -0.117339885116E+04    0.14186E-05   -0.54505E-05  1564   0.838E-03    0.117E-02
RMM:   9    -0.117339884991E+04    0.12484E-05   -0.17927E-05  1677   0.547E-03    0.870E-03
RMM:  10    -0.117339884892E+04    0.99366E-06   -0.37202E-06  1313   0.285E-03
   2 F= -.11805131E+04 E0= -.11805131E+04  d E =-.360345E-03  mag=    -0.0000
       N       E                     dE             d eps       ncg     rms          rms(c)
DAV:   1    -0.117339982807E+04   -0.97816E-03   -0.79658E-02  1728   0.467E-01    0.733E-02
RMM:   2    -0.117339992416E+04   -0.96088E-04   -0.15438E-03  1537   0.700E-02    0.652E-02
RMM:   3    -0.117339991871E+04    0.54465E-05   -0.38415E-04  1820   0.316E-02    0.569E-02
RMM:   4    -0.117339985691E+04    0.61803E-04   -0.12727E-04  1587   0.161E-02    0.353E-02
RMM:   5    -0.117339984656E+04    0.10351E-04   -0.92266E-05  1620   0.130E-02    0.245E-02
RMM:   6    -0.117339984435E+04    0.22063E-05   -0.21895E-05  1762   0.729E-03    0.179E-02
RMM:   7    -0.117339984014E+04    0.42085E-05   -0.65819E-06  1432   0.345E-03    0.108E-02
RMM:   8    -0.117339983970E+04    0.44515E-06   -0.83757E-06  1506   0.350E-03
   3 F= -.11805137E+04 E0= -.11805137E+04  d E =-.102671E-02  mag=    -0.0000
       N       E                     dE             d eps       ncg     rms          rms(c)
DAV:   1    -0.117340037133E+04   -0.53119E-03   -0.27609E-01  1664   0.836E-01    0.115E-01
RMM:   2    -0.117340062115E+04   -0.24982E-03   -0.39667E-03  1536   0.108E-01    0.102E-01
RMM:   3    -0.117340059615E+04    0.25001E-04   -0.96475E-04  1702   0.495E-02    0.835E-02
RMM:   4    -0.117340049531E+04    0.10085E-03   -0.30234E-04  1590   0.260E-02    0.510E-02
RMM:   5    -0.117340049165E+04    0.36581E-05   -0.23816E-04  1538   0.215E-02    0.334E-02
RMM:   6    -0.117340049311E+04   -0.14657E-05   -0.63033E-05  1932   0.128E-02    0.205E-02
RMM:   7    -0.117340048576E+04    0.73564E-05   -0.14447E-05  1526   0.475E-03    0.150E-02
RMM:   8    -0.117340048828E+04   -0.25242E-05   -0.11178E-05  1539   0.415E-03    0.753E-03
RMM:   9    -0.117340048763E+04    0.64776E-06   -0.25149E-06  1088   0.255E-03
   4 F= -.11805147E+04 E0= -.11805147E+04  d E =-.980097E-03  mag=     0.0000
       N       E                     dE             d eps       ncg     rms          rms(c)
DAV:   1    -0.117340048775E+04    0.53074E-06   -0.22141E-06  1600   0.293E-03    0.278E-03
RMM:   2    -0.117340048781E+04   -0.60769E-07   -0.32951E-07   985   0.946E-04
   5 F= -.11805147E+04 E0= -.11805147E+04  d E =-.979995E-03  mag=    -0.0000
       N       E                     dE             d eps       ncg     rms          rms(c)
DAV:   1    -0.117340098061E+04   -0.49286E-03   -0.15437E-01  1664   0.619E-01    0.754E-02
RMM:   2    -0.117340113589E+04   -0.15528E-03   -0.21990E-03  1536   0.807E-02    0.722E-02
RMM:   3    -0.117340116751E+04   -0.31620E-04   -0.50871E-04  1744   0.360E-02    0.669E-02
RMM:   4    -0.117340114938E+04    0.18130E-04   -0.86917E-05  1742   0.145E-02    0.587E-02
RMM:   5    -0.117340112445E+04    0.24927E-04   -0.20070E-04  1536   0.175E-02    0.215E-02
RMM:   6    -0.117340113366E+04   -0.92136E-05   -0.51920E-05  1598   0.101E-02    0.154E-02
RMM:   7    -0.117340113030E+04    0.33605E-05   -0.60558E-06  1479   0.449E-03    0.129E-02
RMM:   8    -0.117340112812E+04    0.21890E-05   -0.76704E-06  1462   0.339E-03    0.826E-03
RMM:   9    -0.117340112845E+04   -0.33773E-06   -0.49749E-06  1362   0.288E-03
   6 F= -.11805156E+04 E0= -.11805156E+04  d E =-.861283E-03  mag=    -0.0000
       N       E                     dE             d eps       ncg     rms          rms(c)
DAV:   1    -0.117340110753E+04    0.20587E-04   -0.62793E-02  1664   0.395E-01    0.484E-02
RMM:   2    -0.117340117134E+04   -0.63816E-04   -0.89415E-04  1536   0.514E-02    0.466E-02
RMM:   3    -0.117340118512E+04   -0.13780E-04   -0.20547E-04  1752   0.230E-02    0.431E-02
RMM:   4    -0.117340117947E+04    0.56576E-05   -0.37783E-05  1710   0.929E-03    0.378E-02
RMM:   5    -0.117340117274E+04    0.67278E-05   -0.71972E-05  1536   0.105E-02    0.146E-02
RMM:   6    -0.117340117800E+04   -0.52633E-05   -0.24189E-05  1594   0.672E-03    0.106E-02
RMM:   7    -0.117340117592E+04    0.20843E-05   -0.23076E-06  1082   0.299E-03    0.832E-03
RMM:   8    -0.117340117504E+04    0.88099E-06   -0.40321E-06  1318   0.256E-03
   7 F= -.11805158E+04 E0= -.11805158E+04  d E =-.104948E-02  mag=    -0.0000
       N       E                     dE             d eps       ncg     rms          rms(c)
DAV:   1    -0.117340163252E+04   -0.45661E-03   -0.17257E-01  1664   0.652E-01    0.843E-02
RMM:   2    -0.117340181679E+04   -0.18427E-03   -0.25436E-03  1536   0.849E-02    0.793E-02
RMM:   3    -0.117340184749E+04   -0.30696E-04   -0.57060E-04  1740   0.381E-02    0.724E-02
RMM:   4    -0.117340182429E+04    0.23198E-04   -0.98391E-05  1717   0.157E-02    0.628E-02
RMM:   5    -0.117340179582E+04    0.28466E-04   -0.23246E-04  1546   0.198E-02    0.219E-02
RMM:   6    -0.117340180406E+04   -0.82373E-05   -0.57363E-05  1739   0.111E-02    0.156E-02
RMM:   7    -0.117340179731E+04    0.67486E-05   -0.77819E-06  1518   0.455E-03    0.117E-02
RMM:   8    -0.117340179690E+04    0.40899E-06   -0.15121E-05  1495   0.441E-03    0.506E-03
RMM:   9    -0.117340179668E+04    0.22239E-06   -0.15384E-06  1024   0.233E-03
   8 F= -.11805165E+04 E0= -.11805165E+04  d E =-.741852E-03  mag=    -0.0000
       N       E                     dE             d eps       ncg     rms          rms(c)
DAV:   1    -0.117340180055E+04   -0.36502E-05   -0.16017E-02  1664   0.199E-01    0.260E-02
RMM:   2    -0.117340181785E+04   -0.17299E-04   -0.24402E-04  1536   0.263E-02    0.245E-02
RMM:   3    -0.117340182034E+04   -0.24888E-05   -0.52777E-05  1708   0.118E-02    0.224E-02
RMM:   4    -0.117340181784E+04    0.25046E-05   -0.10931E-05  1532   0.520E-03    0.191E-02
RMM:   5    -0.117340181539E+04    0.24434E-05   -0.21616E-05  1534   0.605E-03    0.716E-03
RMM:   6    -0.117340181629E+04   -0.89283E-06   -0.62130E-06  1482   0.367E-03
   9 F= -.11805166E+04 E0= -.11805166E+04  d E =-.798541E-03  mag=    -0.0000
       N       E                     dE             d eps       ncg     rms          rms(c)
DAV:   1    -0.117340228160E+04   -0.46620E-03   -0.18415E-01  1664   0.657E-01    0.890E-02
RMM:   2    -0.117340247193E+04   -0.19033E-03   -0.27506E-03  1536   0.858E-02    0.777E-02
RMM:   3    -0.117340249563E+04   -0.23700E-04   -0.61942E-04  1704   0.386E-02    0.670E-02
RMM:   4    -0.117340247087E+04    0.24759E-04   -0.12061E-04  1674   0.173E-02    0.516E-02
RMM:   5    -0.117340246136E+04    0.95106E-05   -0.13156E-04  1542   0.152E-02    0.265E-02
RMM:   6    -0.117340246811E+04   -0.67507E-05   -0.49834E-05  1736   0.104E-02    0.145E-02
RMM:   7    -0.117340246524E+04    0.28714E-05   -0.65485E-06  1473   0.413E-03    0.112E-02
RMM:   8    -0.117340246420E+04    0.10436E-05   -0.16673E-05  1494   0.451E-03    0.547E-03
RMM:   9    -0.117340246370E+04    0.49923E-06   -0.14810E-06  1032   0.217E-03
  10 F= -.11805173E+04 E0= -.11805173E+04  d E =-.690687E-03  mag=     0.0000
       N       E                     dE             d eps       ncg     rms          rms(c)
DAV:   1    -0.117340250075E+04   -0.36553E-04   -0.52101E-02  1664   0.349E-01    0.468E-02
RMM:   2    -0.117340255485E+04   -0.54096E-04   -0.78084E-04  1536   0.457E-02    0.410E-02
RMM:   3    -0.117340256142E+04   -0.65768E-05   -0.17607E-04  1698   0.205E-02    0.355E-02
RMM:   4    -0.117340255371E+04    0.77132E-05   -0.34269E-05  1659   0.922E-03    0.277E-02
RMM:   5    -0.117340255006E+04    0.36538E-05   -0.39161E-05  1540   0.826E-03    0.141E-02
RMM:   6    -0.117340255199E+04   -0.19292E-05   -0.15054E-05  1630   0.571E-03    0.797E-03
RMM:   7    -0.117340255105E+04    0.94028E-06   -0.18448E-06  1044   0.268E-03
  11 F= -.11805174E+04 E0= -.11805174E+04  d E =-.802200E-03  mag=     0.0000
       N       E                     dE             d eps       ncg     rms          rms(c)
DAV:   1    -0.117340292525E+04   -0.37326E-03   -0.13860E-01  1664   0.571E-01    0.747E-02
RMM:   2    -0.117340306876E+04   -0.14352E-03   -0.20296E-03  1536   0.744E-02    0.669E-02
RMM:   3    -0.117340307346E+04   -0.46940E-05   -0.43186E-04  1670   0.334E-02    0.550E-02
RMM:   4    -0.117340304920E+04    0.24257E-04   -0.16875E-04  1562   0.192E-02    0.247E-02
RMM:   5    -0.117340306015E+04   -0.10948E-04   -0.71958E-05  1612   0.122E-02    0.129E-02
RMM:   6    -0.117340305605E+04    0.40996E-05   -0.12898E-05  1550   0.616E-03    0.823E-03
RMM:   7    -0.117340305687E+04   -0.82151E-06   -0.73067E-06  1464   0.363E-03
  12 F= -.11805180E+04 E0= -.11805180E+04  d E =-.592649E-03  mag=     0.0000
       N       E                     dE             d eps       ncg     rms          rms(c)
DAV:   1    -0.117340309603E+04   -0.39984E-04   -0.42606E-02  1664   0.317E-01    0.416E-02
RMM:   2    -0.117340313925E+04   -0.43215E-04   -0.61641E-04  1536   0.409E-02    0.373E-02
RMM:   3    -0.117340314218E+04   -0.29333E-05   -0.13096E-04  1672   0.183E-02    0.313E-02
RMM:   4    -0.117340313699E+04    0.51871E-05   -0.37291E-05  1594   0.957E-03    0.206E-02
RMM:   5    -0.117340313874E+04   -0.17488E-05   -0.25179E-05  1552   0.733E-03    0.970E-03
RMM:   6    -0.117340313979E+04   -0.10460E-05   -0.77153E-06  1466   0.434E-03    0.712E-03
RMM:   7    -0.117340313841E+04    0.13747E-05   -0.54561E-06  1398   0.305E-03    0.362E-03
RMM:   8    -0.117340313858E+04   -0.17054E-06   -0.68316E-07  1020   0.155E-03
  13 F= -.11805181E+04 E0= -.11805181E+04  d E =-.723603E-03  mag=    -0.0000
       N       E                     dE             d eps       ncg     rms          rms(c)
DAV:   1    -0.117340311989E+04    0.18521E-04   -0.91921E-03  1664   0.147E-01    0.189E-02
RMM:   2    -0.117340312951E+04   -0.96185E-05   -0.13484E-04  1536   0.192E-02    0.169E-02
RMM:   3    -0.117340313012E+04   -0.60971E-06   -0.28234E-05  1623   0.862E-03    0.142E-02
RMM:   4    -0.117340312878E+04    0.13387E-05   -0.10061E-05  1549   0.500E-03    0.747E-03
RMM:   5    -0.117340312934E+04   -0.55981E-06   -0.52008E-06  1366   0.333E-03
  14 F= -.11805181E+04 E0= -.11805181E+04  d E =-.737440E-03  mag=     0.0000
       N       E                     dE             d eps       ncg     rms          rms(c)
DAV:   1    -0.117340334445E+04   -0.21567E-03   -0.18104E-01  1664   0.638E-01    0.865E-02
RMM:   2    -0.117340353835E+04   -0.19390E-03   -0.26555E-03  1536   0.832E-02    0.768E-02
RMM:   3    -0.117340356505E+04   -0.26696E-04   -0.57225E-04  1682   0.371E-02    0.647E-02
RMM:   4    -0.117340355601E+04    0.90346E-05   -0.12507E-04  1626   0.178E-02    0.458E-02
RMM:   5    -0.117340356551E+04   -0.94982E-05   -0.97759E-05  1542   0.140E-02    0.207E-02
RMM:   6    -0.117340357269E+04   -0.71739E-05   -0.37036E-05  1828   0.891E-03    0.133E-02
RMM:   7    -0.117340356762E+04    0.50622E-05   -0.69817E-06  1408   0.370E-03    0.988E-03
RMM:   8    -0.117340356736E+04    0.26014E-06   -0.12780E-05  1464   0.391E-03    0.381E-03
RMM:   9    -0.117340356720E+04    0.16144E-06   -0.13310E-06  1027   0.194E-03
  15 F= -.11805187E+04 E0= -.11805187E+04  d E =-.574049E-03  mag=    -0.0000
