       N       E                     dE             d eps       ncg     rms          rms(c)
DAV:   1     0.479607065912E+04    0.47961E+04   -0.17794E+05  1908   0.926E+02
DAV:   2    -0.707798426747E+02   -0.48669E+04   -0.44496E+04  2592   0.216E+02
DAV:   3    -0.119419957169E+04   -0.11234E+04   -0.11176E+04  2088   0.110E+02
DAV:   4    -0.124863978167E+04   -0.54440E+02   -0.54110E+02  2124   0.358E+01
DAV:   5    -0.125049919084E+04   -0.18594E+01   -0.18501E+01  2232   0.560E+00    0.671E+01
RMM:   6    -0.123599212139E+04    0.14507E+02   -0.85305E+00  1830   0.375E+00    0.548E+01
RMM:   7    -0.119473371556E+04    0.41258E+02   -0.97688E+01  1863   0.119E+01    0.333E+01
RMM:   8    -0.118776445922E+04    0.69693E+01   -0.96398E+00  1918   0.873E+00    0.248E+01
RMM:   9    -0.118413626800E+04    0.36282E+01   -0.24353E+01  1684   0.590E+00    0.152E+01
RMM:  10    -0.118489344795E+04   -0.75718E+00   -0.86903E+00  1794   0.761E+00    0.989E+00
RMM:  11    -0.118391532074E+04    0.97813E+00   -0.34340E+00  2059   0.232E+00    0.649E+00
RMM:  12    -0.118341736145E+04    0.49796E+00   -0.17670E+00  1866   0.185E+00    0.594E+00
RMM:  13    -0.118297661219E+04    0.44075E+00   -0.63458E-01  1952   0.123E+00    0.297E+00
RMM:  14    -0.118292347474E+04    0.53137E-01   -0.40617E-01  1707   0.914E-01    0.108E+00
RMM:  15    -0.118292359850E+04   -0.12376E-03   -0.51114E-02  1808   0.824E-01    0.153E+00
RMM:  16    -0.118292756096E+04   -0.39625E-02   -0.14674E-02  1881   0.162E-01    0.130E+00
RMM:  17    -0.118292789838E+04   -0.33742E-03   -0.35529E-03  1701   0.142E-01    0.109E+00
RMM:  18    -0.118292781609E+04    0.82284E-04   -0.32486E-03  1693   0.104E-01    0.870E-01
RMM:  19    -0.118292748401E+04    0.33208E-03   -0.14489E-03  1586   0.849E-02    0.727E-01
RMM:  20    -0.118292754468E+04   -0.60673E-04   -0.70978E-04  1383   0.635E-02
   1 F= -.11901402E+04 E0= -.11901396E+04  d E =-.119014E+04  mag=    -1.0002
       N       E                     dE             d eps       ncg     rms          rms(c)
DAV:   1    -0.118292721540E+04    0.26861E-03   -0.41795E-01  1836   0.105E+00    0.489E-01
RMM:   2    -0.118292766509E+04   -0.44969E-03   -0.13442E-02  1933   0.174E-01    0.443E-01
RMM:   3    -0.118292709848E+04    0.56662E-03   -0.17617E-03  1726   0.111E-01    0.353E-01
RMM:   4    -0.118292706249E+04    0.35986E-04   -0.24566E-03  1755   0.750E-02    0.181E-01
RMM:   5    -0.118292706476E+04   -0.22695E-05   -0.48802E-04  1328   0.636E-02
   2 F= -.11901401E+04 E0= -.11901396E+04  d E =0.125045E-03  mag=    -0.9887
       N       E                     dE             d eps       ncg     rms          rms(c)
DAV:   1    -0.118292853453E+04   -0.14720E-02   -0.11715E-01  1836   0.556E-01    0.134E-01
RMM:   2    -0.118292853094E+04    0.35838E-05   -0.30323E-03  1774   0.864E-02    0.121E-01
RMM:   3    -0.118292829123E+04    0.23972E-03   -0.33292E-04  1221   0.690E-02    0.936E-02
RMM:   4    -0.118292812560E+04    0.16562E-03   -0.59624E-04  1502   0.356E-02    0.541E-02
RMM:   5    -0.118292812587E+04   -0.26845E-06   -0.20866E-04  1102   0.542E-02
   3 F= -.11901410E+04 E0= -.11901404E+04  d E =-.748530E-03  mag=    -0.9890
