       N       E                     dE             d eps       ncg     rms          rms(c)
DAV:   1     0.471795341942E+04    0.47180E+04   -0.17292E+05  1944   0.906E+02
DAV:   2    -0.792812493930E+01   -0.47259E+04   -0.42778E+04  2556   0.207E+02
DAV:   3    -0.117097809776E+04   -0.11630E+04   -0.11544E+04  2196   0.112E+02
DAV:   4    -0.123595624865E+04   -0.64978E+02   -0.64595E+02  2268   0.345E+01
DAV:   5    -0.123844394695E+04   -0.24877E+01   -0.24820E+01  2304   0.636E+00    0.686E+01
RMM:   6    -0.121742313247E+04    0.21021E+02   -0.12057E+01  2130   0.631E+00    0.522E+01
RMM:   7    -0.119193344377E+04    0.25490E+02   -0.31432E+01  2091   0.671E+00    0.380E+01
RMM:   8    -0.117188281133E+04    0.20051E+02   -0.28047E+01  2066   0.930E+00    0.256E+01
RMM:   9    -0.116681674078E+04    0.50661E+01   -0.16708E+01  2092   0.587E+00    0.172E+01
RMM:  10    -0.116764132321E+04   -0.82458E+00   -0.90372E+00  2093   0.448E+00    0.102E+01
RMM:  11    -0.116768975316E+04   -0.48430E-01   -0.86032E-01  2085   0.182E+00    0.727E+00
RMM:  12    -0.116714379859E+04    0.54595E+00   -0.12226E+00  2081   0.182E+00    0.271E+00
RMM:  13    -0.116707390490E+04    0.69894E-01   -0.72717E-01  2085   0.129E+00    0.188E+00
RMM:  14    -0.116705668631E+04    0.17219E-01   -0.10532E-01  2101   0.648E-01    0.761E-01
RMM:  15    -0.116705582875E+04    0.85756E-03   -0.33008E-02  2096   0.221E-01    0.588E-01
RMM:  16    -0.116705171307E+04    0.41157E-02   -0.12010E-02  2023   0.206E-01    0.368E-01
RMM:  17    -0.116705154279E+04    0.17027E-03   -0.51129E-03  1533   0.146E-01    0.419E-01
RMM:  18    -0.116705189842E+04   -0.35563E-03   -0.10385E-03  1274   0.125E-01    0.202E-01
RMM:  19    -0.116705196643E+04   -0.68008E-04   -0.60683E-04  1281   0.172E-01
   1 F= -.11742911E+04 E0= -.11742911E+04  d E =-.117429E+04  mag=    -2.0045
       N       E                     dE             d eps       ncg     rms          rms(c)
DAV:   1    -0.116704942653E+04    0.24719E-02   -0.46434E-01  2124   0.150E+00    0.560E-01
RMM:   2    -0.116705195575E+04   -0.25292E-02   -0.30033E-02  2254   0.207E-01    0.516E-01
RMM:   3    -0.116705174685E+04    0.20890E-03   -0.30719E-03  1248   0.338E-01    0.420E-01
RMM:   4    -0.116705125665E+04    0.49020E-03   -0.35262E-03  1952   0.143E-01    0.197E-01
RMM:   5    -0.116705139244E+04   -0.13579E-03   -0.10630E-03  1745   0.102E-01    0.111E-01
RMM:   6    -0.116705144361E+04   -0.51169E-04   -0.50301E-04  1260   0.113E-01
   2 F= -.11742905E+04 E0= -.11742905E+04  d E =0.525908E-03  mag=    -1.9997
       N       E                     dE             d eps       ncg     rms          rms(c)
DAV:   1    -0.116705246813E+04   -0.10757E-02   -0.15270E-01  2268   0.845E-01    0.236E-01
RMM:   2    -0.116705311363E+04   -0.64549E-03   -0.91622E-03  2225   0.110E-01    0.202E-01
RMM:   3    -0.116705290146E+04    0.21217E-03   -0.77795E-04  1218   0.180E-01    0.163E-01
RMM:   4    -0.116705260650E+04    0.29496E-03   -0.28346E-04  1145   0.868E-02    0.142E-01
RMM:   5    -0.116705250481E+04    0.10170E-03   -0.42131E-04  1182   0.136E-01    0.749E-02
RMM:   6    -0.116705253651E+04   -0.31703E-04   -0.37293E-04  1223   0.183E-01
   3 F= -.11742916E+04 E0= -.11742916E+04  d E =-.566995E-03  mag=    -2.0001
