       N       E                     dE             d eps       ncg     rms          rms(c)
DAV:   1     0.495407098046E+04    0.49541E+04   -0.16978E+05  1692   0.989E+02
DAV:   2     0.216536251410E+02   -0.49324E+04   -0.45353E+04  2268   0.220E+02
DAV:   3    -0.117557768708E+04   -0.11972E+04   -0.11903E+04  1872   0.120E+02
DAV:   4    -0.122795026466E+04   -0.52373E+02   -0.51942E+02  1836   0.332E+01
DAV:   5    -0.122922102268E+04   -0.12708E+01   -0.12663E+01  2016   0.485E+00    0.662E+01
RMM:   6    -0.121468187915E+04    0.14539E+02   -0.29427E+01  1440   0.534E+00    0.520E+01
RMM:   7    -0.119763166146E+04    0.17050E+02   -0.95263E+00  1440   0.385E+00    0.418E+01
RMM:   8    -0.116808516786E+04    0.29546E+02   -0.55052E+01  1440   0.910E+00    0.251E+01
RMM:   9    -0.116281772421E+04    0.52674E+01   -0.14961E+01  1440   0.477E+00    0.170E+01
RMM:  10    -0.116451525795E+04   -0.16975E+01   -0.89029E+00  1440   0.365E+00    0.982E+00
RMM:  11    -0.116402769132E+04    0.48757E+00   -0.15314E+00  1454   0.152E+00    0.670E+00
RMM:  12    -0.116332034450E+04    0.70735E+00   -0.20979E+00  1440   0.148E+00    0.423E+00
RMM:  13    -0.116308359226E+04    0.23675E+00   -0.63844E-01  1440   0.961E-01    0.940E-01
RMM:  14    -0.116308664108E+04   -0.30488E-02   -0.48046E-02  1452   0.270E-01    0.626E-01
RMM:  15    -0.116308395699E+04    0.26841E-02   -0.19702E-02  1454   0.169E-01    0.377E-01
RMM:  16    -0.116308505234E+04   -0.10954E-02   -0.54711E-03  1442   0.929E-02    0.289E-01
RMM:  17    -0.116308403146E+04    0.10209E-02   -0.15469E-03  1316   0.427E-02    0.162E-01
RMM:  18    -0.116308381539E+04    0.21607E-03   -0.94361E-04  1324   0.355E-02    0.923E-02
RMM:  19    -0.116308373209E+04    0.83301E-04   -0.63560E-04  1223   0.295E-02
   1 F= -.11702962E+04 E0= -.11702962E+04  d E =-.117030E+04  mag=     0.0038
       N       E                     dE             d eps       ncg     rms          rms(c)
DAV:   1    -0.116308018191E+04    0.36335E-02   -0.15071E+00  1656   0.200E+00    0.573E-01
RMM:   2    -0.116308290426E+04   -0.27223E-02   -0.34119E-02  1440   0.280E-01    0.546E-01
RMM:   3    -0.116308250161E+04    0.40265E-03   -0.22498E-03  1527   0.603E-02    0.489E-01
RMM:   4    -0.116308156745E+04    0.93416E-03   -0.87681E-03  1440   0.110E-01    0.113E-01
RMM:   5    -0.116308152861E+04    0.38839E-04   -0.30782E-04  1012   0.262E-02
   2 F= -.11702938E+04 E0= -.11702938E+04  d E =0.233371E-02  mag=     0.0017
       N       E                     dE             d eps       ncg     rms          rms(c)
DAV:   1    -0.116308596039E+04   -0.43929E-02   -0.47949E-01  1584   0.112E+00    0.305E-01
RMM:   2    -0.116308647397E+04   -0.51358E-03   -0.75708E-03  1440   0.136E-01    0.289E-01
RMM:   3    -0.116308630403E+04    0.16994E-03   -0.45945E-04  1072   0.292E-02    0.253E-01
RMM:   4    -0.116308596563E+04    0.33840E-03   -0.22234E-03  1440   0.582E-02    0.471E-02
RMM:   5    -0.116308595937E+04    0.62661E-05   -0.59229E-05   873   0.125E-02
   3 F= -.11702983E+04 E0= -.11702983E+04  d E =-.216961E-02  mag=     0.0011
       N       E                     dE             d eps       ncg     rms          rms(c)
DAV:   1    -0.116308716151E+04   -0.11959E-02   -0.68759E-01  1548   0.131E+00    0.319E-01
RMM:   2    -0.116308765597E+04   -0.49446E-03   -0.11993E-02  1440   0.174E-01    0.290E-01
RMM:   3    -0.116308690389E+04    0.75208E-03   -0.90876E-04  1382   0.418E-02    0.233E-01
RMM:   4    -0.116308610534E+04    0.79856E-03   -0.48096E-03  1440   0.815E-02    0.624E-02
RMM:   5    -0.116308607586E+04    0.29476E-04   -0.10370E-04   920   0.162E-02
   4 F= -.11702983E+04 E0= -.11702983E+04  d E =0.797211E-04  mag=     0.0006
       N       E                     dE             d eps       ncg     rms          rms(c)
DAV:   1    -0.116308730899E+04   -0.12037E-02   -0.18594E-01  1584   0.682E-01    0.155E-01
RMM:   2    -0.116308738656E+04   -0.77565E-04   -0.28864E-03  1440   0.840E-02    0.141E-01
RMM:   3    -0.116308716628E+04    0.22028E-03   -0.23207E-04   953   0.221E-02    0.112E-01
RMM:   4    -0.116308695756E+04    0.20872E-03   -0.12717E-03  1440   0.426E-02    0.280E-02
RMM:   5    -0.116308695109E+04    0.64709E-05   -0.23339E-05   855   0.810E-03
   5 F= -.11702992E+04 E0= -.11702992E+04  d E =-.897132E-03  mag=     0.0003
