       N       E                     dE             d eps       ncg     rms          rms(c)
DAV:   1     0.495375075163E+04    0.49538E+04   -0.16968E+05  1800   0.907E+02
DAV:   2    -0.285341331286E+02   -0.49823E+04   -0.45344E+04  2520   0.209E+02
DAV:   3    -0.117221990052E+04   -0.11437E+04   -0.11381E+04  2124   0.111E+02
DAV:   4    -0.122004574379E+04   -0.47826E+02   -0.47606E+02  2052   0.299E+01
DAV:   5    -0.122126931229E+04   -0.12236E+01   -0.12206E+01  2340   0.448E+00    0.597E+01
RMM:   6    -0.120982679617E+04    0.11443E+02   -0.65922E+00  1584   0.310E+00    0.491E+01
RMM:   7    -0.117313011999E+04    0.36697E+02   -0.50134E+01  1584   0.826E+00    0.293E+01
RMM:   8    -0.116333825894E+04    0.97919E+01   -0.15236E+01  1584   0.462E+00    0.215E+01
RMM:   9    -0.116121874977E+04    0.21195E+01   -0.30905E+01  1584   0.632E+00    0.897E+00
RMM:  10    -0.116086084324E+04    0.35791E+00   -0.74311E-01  1620   0.134E+00    0.485E+00
RMM:  11    -0.116039658796E+04    0.46426E+00   -0.12889E+00  1584   0.127E+00    0.162E+00
RMM:  12    -0.116038370354E+04    0.12884E-01   -0.11566E-01  1597   0.417E-01    0.616E-01
RMM:  13    -0.116038504044E+04   -0.13369E-02   -0.10525E-01  1584   0.388E-01    0.544E-01
RMM:  14    -0.116037665293E+04    0.83875E-02   -0.20042E-02  1584   0.182E-01    0.171E-01
RMM:  15    -0.116037677587E+04   -0.12293E-03   -0.23068E-03  1737   0.688E-02    0.130E-01
RMM:  16    -0.116037663451E+04    0.14136E-03   -0.49124E-04  1290   0.296E-02    0.916E-02
RMM:  17    -0.116037682125E+04   -0.18674E-03   -0.12532E-03  1584   0.408E-02    0.583E-02
RMM:  18    -0.116037682422E+04   -0.29705E-05   -0.29187E-04  1183   0.228E-02
   1 F= -.11673900E+04 E0= -.11673900E+04  d E =-.116739E+04  mag=    -0.0020
       N       E                     dE             d eps       ncg     rms          rms(c)
DAV:   1    -0.116037738256E+04   -0.56131E-03   -0.24112E-01  1728   0.774E-01    0.155E-01
RMM:   2    -0.116037762900E+04   -0.24644E-03   -0.61470E-03  1584   0.113E-01    0.146E-01
RMM:   3    -0.116037731003E+04    0.31896E-03   -0.41185E-04  1231   0.321E-02    0.126E-01
RMM:   4    -0.116037672630E+04    0.58373E-03   -0.26719E-03  1584   0.574E-02    0.416E-02
RMM:   5    -0.116037671555E+04    0.10749E-04   -0.50845E-05  1013   0.140E-02
   2 F= -.11673901E+04 E0= -.11673901E+04  d E =-.678900E-04  mag=    -0.0006
       N       E                     dE             d eps       ncg     rms          rms(c)
DAV:   1    -0.116037748878E+04   -0.76247E-03   -0.57075E-02  1728   0.375E-01    0.678E-02
RMM:   2    -0.116037751150E+04   -0.22723E-04   -0.11293E-03  1584   0.505E-02    0.638E-02
RMM:   3    -0.116037742631E+04    0.85190E-04   -0.74454E-05  1013   0.139E-02
   3 F= -.11673907E+04 E0= -.11673907E+04  d E =-.691581E-03  mag=     0.0003
