       N       E                     dE             d eps       ncg     rms          rms(c)
DAV:   1     0.506527183103E+04    0.50653E+04   -0.17377E+05  1836   0.919E+02
DAV:   2    -0.163688763383E+02   -0.50816E+04   -0.46449E+04  2520   0.212E+02
DAV:   3    -0.119166511915E+04   -0.11753E+04   -0.11707E+04  2232   0.112E+02
DAV:   4    -0.123946449891E+04   -0.47799E+02   -0.47504E+02  2088   0.287E+01
DAV:   5    -0.124085770240E+04   -0.13932E+01   -0.13896E+01  2448   0.407E+00    0.654E+01
RMM:   6    -0.122707942656E+04    0.13778E+02   -0.83082E+00  1589   0.320E+00    0.537E+01
RMM:   7    -0.118475835340E+04    0.42321E+02   -0.80649E+01  1586   0.100E+01    0.301E+01
RMM:   8    -0.118026629488E+04    0.44921E+01   -0.10240E+01  1592   0.358E+00    0.226E+01
RMM:   9    -0.117685182928E+04    0.34145E+01   -0.28482E+01  1586   0.606E+00    0.116E+01
RMM:  10    -0.117674304205E+04    0.10879E+00   -0.27011E+00  1612   0.184E+00    0.690E+00
RMM:  11    -0.117609171193E+04    0.65133E+00   -0.18102E+00  1595   0.131E+00    0.458E+00
RMM:  12    -0.117581171620E+04    0.28000E+00   -0.15805E+00  1585   0.107E+00    0.169E+00
RMM:  13    -0.117572557726E+04    0.86139E-01   -0.86522E-02  1590   0.315E-01    0.705E-01
RMM:  14    -0.117571366894E+04    0.11908E-01   -0.35941E-02  1654   0.182E-01    0.320E-01
RMM:  15    -0.117571341284E+04    0.25610E-03   -0.81862E-03  1631   0.102E-01    0.237E-01
RMM:  16    -0.117571365017E+04   -0.23733E-03   -0.67539E-03  1573   0.539E-02    0.211E-01
RMM:  17    -0.117571362047E+04    0.29702E-04   -0.17193E-03  1580   0.448E-02    0.102E-01
RMM:  18    -0.117571365563E+04   -0.35162E-04   -0.10433E-03  1592   0.341E-02    0.590E-02
RMM:  19    -0.117571362887E+04    0.26760E-04   -0.99457E-05  1028   0.119E-02
   1 F= -.11828199E+04 E0= -.11828199E+04  d E =-.118282E+04  mag=     0.0017
       N       E                     dE             d eps       ncg     rms          rms(c)
DAV:   1    -0.117541872202E+04    0.29493E+00   -0.57077E+01  1620   0.579E+00    0.744E+00
RMM:   2    -0.117554617143E+04   -0.12745E+00   -0.15941E+00  1622   0.924E-01    0.704E+00
RMM:   3    -0.117550650597E+04    0.39665E-01   -0.90637E-02  1661   0.219E-01    0.528E+00
RMM:   4    -0.117553968871E+04   -0.33183E-01   -0.30989E-01  1622   0.416E-01    0.959E-01
RMM:   5    -0.117550643718E+04    0.33252E-01   -0.23319E-02  1608   0.125E-01    0.618E-01
RMM:   6    -0.117549734449E+04    0.90927E-02   -0.45740E-02  1597   0.174E-01    0.409E-01
RMM:   7    -0.117549602496E+04    0.13195E-02   -0.26574E-03  1391   0.397E-02    0.102E-01
RMM:   8    -0.117549584769E+04    0.17727E-03   -0.13838E-03  1210   0.276E-02    0.845E-02
RMM:   9    -0.117549575030E+04    0.97392E-04   -0.16637E-04  1051   0.113E-02
   2 F= -.11826083E+04 E0= -.11826083E+04  d E =0.211525E+00  mag=    -0.0000
       N       E                     dE             d eps       ncg     rms          rms(c)
DAV:   1    -0.117571640428E+04   -0.22056E+00   -0.28308E+01  1656   0.437E+00    0.534E+00
RMM:   2    -0.117578251342E+04   -0.66109E-01   -0.83282E-01  1601   0.663E-01    0.532E+00
RMM:   3    -0.117576525910E+04    0.17254E-01   -0.23606E-02  1605   0.105E-01    0.494E+00
RMM:   4    -0.117576342884E+04    0.18303E-02   -0.20017E-01  1628   0.332E-01    0.818E-01
RMM:   5    -0.117575936335E+04    0.40655E-02   -0.92172E-03  1556   0.643E-02    0.559E-01
RMM:   6    -0.117574889396E+04    0.10469E-01   -0.26216E-02  1588   0.134E-01    0.257E-01
RMM:   7    -0.117574823275E+04    0.66122E-03   -0.22182E-03  1255   0.328E-02    0.105E-01
RMM:   8    -0.117574799874E+04    0.23401E-03   -0.14137E-03  1209   0.254E-02    0.546E-02
RMM:   9    -0.117574791337E+04    0.85369E-04   -0.17366E-04  1051   0.106E-02
   3 F= -.11828560E+04 E0= -.11828560E+04  d E =-.361705E-01  mag=     0.0000
       N       E                     dE             d eps       ncg     rms          rms(c)
DAV:   1    -0.117575014002E+04   -0.21413E-02   -0.10492E+00  1656   0.147E+00    0.448E-01
RMM:   2    -0.117575164414E+04   -0.15041E-02   -0.22410E-02  1636   0.196E-01    0.385E-01
RMM:   3    -0.117575102763E+04    0.61652E-03   -0.16410E-03  1590   0.457E-02    0.329E-01
RMM:   4    -0.117575072357E+04    0.30406E-03   -0.40953E-03  1594   0.678E-02    0.154E-01
RMM:   5    -0.117575063519E+04    0.88372E-04   -0.43233E-04  1148   0.213E-02
   4 F= -.11828594E+04 E0= -.11828594E+04  d E =-.337292E-02  mag=    -0.0000
       N       E                     dE             d eps       ncg     rms          rms(c)
DAV:   1    -0.117575077219E+04   -0.48628E-04   -0.22154E-02  1800   0.214E-01    0.727E-02
RMM:   2    -0.117575074020E+04    0.31998E-04   -0.35471E-04  1088   0.255E-02
   5 F= -.11828594E+04 E0= -.11828594E+04  d E =-.338180E-02  mag=     0.0000
       N       E                     dE             d eps       ncg     rms          rms(c)
DAV:   1    -0.117575056354E+04    0.20865E-03   -0.67834E-01  1728   0.124E+00    0.232E-01
RMM:   2    -0.117575181953E+04   -0.12560E-02   -0.15390E-02  1620   0.168E-01    0.207E-01
RMM:   3    -0.117575160164E+04    0.21789E-03   -0.79513E-04  1336   0.342E-02    0.185E-01
RMM:   4    -0.117575150618E+04    0.95468E-04   -0.16501E-03  1562   0.428E-02    0.930E-02
RMM:   5    -0.117575147671E+04    0.29465E-04   -0.10283E-04  1070   0.128E-02
   6 F= -.11828605E+04 E0= -.11828605E+04  d E =-.108478E-02  mag=     0.0000
       N       E                     dE             d eps       ncg     rms          rms(c)
DAV:   1    -0.117575185815E+04   -0.35198E-03   -0.87153E-02  1728   0.445E-01    0.890E-02
RMM:   2    -0.117575196258E+04   -0.10443E-03   -0.18360E-03  1521   0.576E-02    0.787E-02
RMM:   3    -0.117575190012E+04    0.62460E-04   -0.11986E-04  1018   0.138E-02
   7 F= -.11828608E+04 E0= -.11828608E+04  d E =-.138135E-02  mag=    -0.0000
       N       E                     dE             d eps       ncg     rms          rms(c)
DAV:   1    -0.117575238374E+04   -0.42116E-03   -0.18110E-01  1728   0.649E-01    0.823E-02
RMM:   2    -0.117575266100E+04   -0.27726E-03   -0.36214E-03  1590   0.874E-02    0.806E-02
RMM:   3    -0.117575263732E+04    0.23674E-04   -0.19960E-04  1088   0.178E-02
   8 F= -.11828617E+04 E0= -.11828617E+04  d E =-.868731E-03  mag=    -0.0000
       N       E                     dE             d eps       ncg     rms          rms(c)
DAV:   1    -0.117575245817E+04    0.20283E-03   -0.57359E-02  1728   0.367E-01    0.103E-01
RMM:   2    -0.117575249344E+04   -0.35272E-04   -0.93186E-04  1424   0.428E-02
   9 F= -.11828616E+04 E0= -.11828616E+04  d E =-.802785E-03  mag=     0.0000
