       N       E                     dE             d eps       ncg     rms          rms(c)
DAV:   1     0.471007768853E+04    0.47101E+04   -0.17295E+05  1856   0.929E+02
DAV:   2    -0.613050618466E+02   -0.47714E+04   -0.43153E+04  2432   0.207E+02
DAV:   3    -0.118159064810E+04   -0.11203E+04   -0.11145E+04  1984   0.110E+02
DAV:   4    -0.122870440989E+04   -0.47114E+02   -0.46831E+02  1984   0.297E+01
DAV:   5    -0.122986943651E+04   -0.11650E+01   -0.11618E+01  2272   0.427E+00    0.667E+01
RMM:   6    -0.121256123755E+04    0.17308E+02   -0.91898E+00  1573   0.355E+00    0.529E+01
RMM:   7    -0.117798743824E+04    0.34574E+02   -0.78312E+01  1616   0.984E+00    0.303E+01
RMM:   8    -0.116875255391E+04    0.92349E+01   -0.13689E+01  1570   0.525E+00    0.247E+01
RMM:   9    -0.116204191405E+04    0.67106E+01   -0.35454E+01  1633   0.724E+00    0.137E+01
RMM:  10    -0.116236022203E+04   -0.31831E+00   -0.74255E+00  1616   0.385E+00    0.915E+00
RMM:  11    -0.116274812578E+04   -0.38790E+00   -0.13468E+00  1690   0.160E+00    0.678E+00
RMM:  12    -0.116187721954E+04    0.87091E+00   -0.95147E-01  1537   0.121E+00    0.302E+00
RMM:  13    -0.116183840895E+04    0.38811E-01   -0.69679E-01  1538   0.105E+00    0.136E+00
RMM:  14    -0.116187548851E+04   -0.37080E-01   -0.10087E-01  1568   0.446E-01    0.874E-01
RMM:  15    -0.116189711812E+04   -0.21630E-01   -0.61543E-02  1579   0.302E-01    0.690E-01
RMM:  16    -0.116190826449E+04   -0.11146E-01   -0.33080E-02  1633   0.197E-01    0.521E-01
RMM:  17    -0.116191186220E+04   -0.35977E-02   -0.17907E-02  1663   0.135E-01    0.435E-01
RMM:  18    -0.116191187101E+04   -0.88102E-05   -0.61288E-03  1597   0.882E-02    0.260E-01
RMM:  19    -0.116191214495E+04   -0.27395E-03   -0.23746E-03  1745   0.521E-02    0.222E-01
RMM:  20    -0.116191234140E+04   -0.19645E-03   -0.11369E-03  1578   0.365E-02    0.142E-01
RMM:  21    -0.116191237690E+04   -0.35496E-04   -0.10136E-03  1611   0.323E-02    0.935E-02
RMM:  22    -0.116191252870E+04   -0.15181E-03   -0.26624E-04  1707   0.162E-02    0.755E-02
RMM:  23    -0.116191253779E+04   -0.90876E-05   -0.24096E-04  1612   0.145E-02    0.561E-02
RMM:  24    -0.116191253308E+04    0.47088E-05   -0.11035E-04  1674   0.897E-03    0.409E-02
RMM:  25    -0.116191256624E+04   -0.33162E-04   -0.81259E-05  1630   0.798E-03    0.294E-02
RMM:  26    -0.116191256682E+04   -0.57297E-06   -0.50413E-05  1633   0.483E-03    0.271E-02
RMM:  27    -0.116191256986E+04   -0.30409E-05   -0.29708E-05  1286   0.248E-03    0.423E-02
RMM:  28    -0.116191256883E+04    0.10295E-05   -0.24103E-05  1522   0.362E-03    0.448E-02
RMM:  29    -0.116191257193E+04   -0.31060E-05   -0.16220E-05  1278   0.245E-03    0.491E-02
RMM:  30    -0.116191257301E+04   -0.10781E-05   -0.10276E-05  1083   0.126E-03    0.595E-02
RMM:  31    -0.116191257372E+04   -0.70660E-06   -0.68043E-06  1052   0.795E-04
   1 F= -.11619126E+04 E0= -.11619126E+04  d E =-.116191E+04  mag=     1.0002
       N       E                     dE             d eps       ncg     rms          rms(c)
DAV:   1    -0.116155014647E+04    0.36243E+00   -0.42655E+01  1696   0.997E+00    0.378E+00
RMM:   2    -0.116179008728E+04   -0.23994E+00   -0.25334E+00  1744   0.197E+00    0.334E+00
RMM:   3    -0.116183035179E+04   -0.40265E-01   -0.51262E-01  1676   0.797E-01    0.262E+00
RMM:   4    -0.116183795539E+04   -0.76036E-02   -0.19910E-01  1700   0.455E-01    0.155E+00
RMM:   5    -0.116183855779E+04   -0.60240E-03   -0.35577E-02  1622   0.237E-01    0.660E-01
RMM:   6    -0.116184031778E+04   -0.17600E-02   -0.10067E-02  1685   0.119E-01    0.474E-01
RMM:   7    -0.116184122653E+04   -0.90875E-03   -0.48879E-03  1666   0.783E-02    0.274E-01
RMM:   8    -0.116184199542E+04   -0.76889E-03   -0.19346E-03  1705   0.526E-02    0.139E-01
RMM:   9    -0.116184229256E+04   -0.29714E-03   -0.70112E-04  1690   0.309E-02    0.975E-02
RMM:  10    -0.116184247560E+04   -0.18304E-03   -0.25280E-04  1686   0.172E-02    0.838E-02
RMM:  11    -0.116184269718E+04   -0.22158E-03   -0.21632E-04  1573   0.163E-02    0.653E-02
RMM:  12    -0.116184287661E+04   -0.17943E-03   -0.13198E-04  1652   0.118E-02    0.518E-02
RMM:  13    -0.116184305016E+04   -0.17355E-03   -0.18002E-04  1615   0.121E-02    0.336E-02
RMM:  14    -0.116184312097E+04   -0.70804E-04   -0.12768E-04  1638   0.989E-03    0.209E-02
RMM:  15    -0.116184312779E+04   -0.68267E-05   -0.26832E-05  1621   0.566E-03    0.156E-02
RMM:  16    -0.116184313854E+04   -0.10744E-04   -0.16822E-05  1454   0.440E-03    0.108E-02
RMM:  17    -0.116184314390E+04   -0.53579E-05   -0.98577E-06  1335   0.315E-03    0.777E-03
RMM:  18    -0.116184314679E+04   -0.28963E-05   -0.62789E-06  1259   0.252E-03    0.512E-03
RMM:  19    -0.116184314811E+04   -0.13201E-05   -0.37797E-06  1145   0.195E-03    0.344E-03
RMM:  20    -0.116184314823E+04   -0.12063E-06   -0.10619E-06  1045   0.112E-03
   2 F= -.11618431E+04 E0= -.11618429E+04  d E =0.694255E-01  mag=     1.0038
       N       E                     dE             d eps       ncg     rms          rms(c)
DAV:   1    -0.116187231594E+04   -0.29168E-01   -0.14591E+01  1664   0.592E+00    0.233E+00
RMM:   2    -0.116195840090E+04   -0.86085E-01   -0.89744E-01  1780   0.122E+00    0.192E+00
RMM:   3    -0.116197196428E+04   -0.13563E-01   -0.17450E-01  1662   0.478E-01    0.146E+00
RMM:   4    -0.116197208208E+04   -0.11780E-03   -0.65117E-02  1661   0.292E-01    0.752E-01
RMM:   5    -0.116197349049E+04   -0.14084E-02   -0.12240E-02  1755   0.138E-01    0.362E-01
RMM:   6    -0.116197408232E+04   -0.59183E-03   -0.33353E-03  1795   0.617E-02    0.282E-01
RMM:   7    -0.116197431093E+04   -0.22861E-03   -0.13834E-03  1613   0.436E-02    0.147E-01
RMM:   8    -0.116197455247E+04   -0.24155E-03   -0.64102E-04  1701   0.294E-02    0.912E-02
RMM:   9    -0.116197462924E+04   -0.76762E-04   -0.20856E-04  1613   0.166E-02    0.625E-02
RMM:  10    -0.116197469786E+04   -0.68626E-04   -0.10373E-04  1617   0.113E-02    0.478E-02
RMM:  11    -0.116197475209E+04   -0.54228E-04   -0.75082E-05  1580   0.950E-03    0.367E-02
RMM:  12    -0.116197479525E+04   -0.43162E-04   -0.41720E-05  1645   0.716E-03    0.298E-02
RMM:  13    -0.116197483382E+04   -0.38569E-04   -0.37540E-05  1543   0.596E-03    0.202E-02
RMM:  14    -0.116197485354E+04   -0.19724E-04   -0.35309E-05  1595   0.576E-03    0.121E-02
RMM:  15    -0.116197486065E+04   -0.71066E-05   -0.12425E-05  1497   0.365E-03    0.940E-03
RMM:  16    -0.116197486289E+04   -0.22381E-05   -0.64968E-06  1229   0.256E-03    0.594E-03
RMM:  17    -0.116197486360E+04   -0.70790E-06   -0.27713E-06  1127   0.177E-03
   3 F= -.11619749E+04 E0= -.11619748E+04  d E =-.622899E-01  mag=     1.0002
       N       E                     dE             d eps       ncg     rms          rms(c)
DAV:   1    -0.116190952939E+04    0.65334E-01   -0.98895E+00  1632   0.532E+00    0.136E+00
RMM:   2    -0.116197417755E+04   -0.64648E-01   -0.67887E-01  1762   0.103E+00    0.108E+00
RMM:   3    -0.116198636063E+04   -0.12183E-01   -0.13319E-01  1705   0.402E-01    0.824E-01
RMM:   4    -0.116198784549E+04   -0.14849E-02   -0.38311E-02  1740   0.213E-01    0.514E-01
RMM:   5    -0.116198884841E+04   -0.10029E-02   -0.93023E-03  1694   0.117E-01    0.311E-01
RMM:   6    -0.116198958590E+04   -0.73748E-03   -0.19838E-03  1651   0.602E-02    0.176E-01
RMM:   7    -0.116199000750E+04   -0.42160E-03   -0.84949E-04  1630   0.353E-02    0.107E-01
RMM:   8    -0.116199023201E+04   -0.22452E-03   -0.46413E-04  1646   0.243E-02    0.747E-02
RMM:   9    -0.116199034972E+04   -0.11770E-03   -0.18520E-04  1565   0.164E-02    0.570E-02
RMM:  10    -0.116199045188E+04   -0.10216E-03   -0.88725E-05  1582   0.105E-02    0.483E-02
RMM:  11    -0.116199056779E+04   -0.11591E-03   -0.10449E-04  1603   0.995E-03    0.380E-02
RMM:  12    -0.116199066131E+04   -0.93515E-04   -0.10990E-04  1620   0.943E-03    0.261E-02
RMM:  13    -0.116199069745E+04   -0.36142E-04   -0.65071E-05  1596   0.696E-03    0.165E-02
RMM:  14    -0.116199070992E+04   -0.12469E-04   -0.30006E-05  1575   0.494E-03    0.929E-03
RMM:  15    -0.116199071321E+04   -0.32857E-05   -0.81918E-06  1370   0.297E-03    0.649E-03
RMM:  16    -0.116199071458E+04   -0.13753E-05   -0.32027E-06  1145   0.192E-03    0.489E-03
RMM:  17    -0.116199071595E+04   -0.13701E-05   -0.25925E-06  1104   0.167E-03    0.299E-03
RMM:  18    -0.116199071632E+04   -0.36439E-06   -0.96291E-07  1040   0.106E-03
   4 F= -.11619907E+04 E0= -.11619907E+04  d E =-.158527E-01  mag=     1.0009
       N       E                     dE             d eps       ncg     rms          rms(c)
DAV:   1    -0.116198814231E+04    0.25736E-02   -0.14148E+00  1568   0.200E+00    0.535E-01
RMM:   2    -0.116199719305E+04   -0.90507E-02   -0.94824E-02  1768   0.392E-01    0.405E-01
RMM:   3    -0.116199886256E+04   -0.16695E-02   -0.18342E-02  1702   0.152E-01    0.297E-01
RMM:   4    -0.116199906875E+04   -0.20619E-03   -0.60870E-03  1724   0.861E-02    0.172E-01
RMM:   5    -0.116199924938E+04   -0.18063E-03   -0.99934E-04  1718   0.405E-02    0.108E-01
RMM:   6    -0.116199934676E+04   -0.97384E-04   -0.26486E-04  1667   0.208E-02    0.658E-02
RMM:   7    -0.116199941591E+04   -0.69146E-04   -0.11036E-04  1605   0.128E-02    0.382E-02
RMM:   8    -0.116199944344E+04   -0.27530E-04   -0.74637E-05  1610   0.972E-03    0.281E-02
RMM:   9    -0.116199946203E+04   -0.18587E-04   -0.22870E-05  1555   0.589E-03    0.219E-02
RMM:  10    -0.116199947938E+04   -0.17356E-04   -0.14498E-05  1452   0.408E-03    0.184E-02
RMM:  11    -0.116199949833E+04   -0.18945E-04   -0.18818E-05  1482   0.415E-03    0.139E-02
RMM:  12    -0.116199950981E+04   -0.11485E-04   -0.13115E-05  1288   0.328E-03    0.991E-03
RMM:  13    -0.116199951483E+04   -0.50188E-05   -0.91847E-06  1285   0.271E-03    0.588E-03
RMM:  14    -0.116199951636E+04   -0.15300E-05   -0.41898E-06  1141   0.187E-03    0.350E-03
RMM:  15    -0.116199951655E+04   -0.19234E-06   -0.11012E-06  1038   0.117E-03
   5 F= -.11619995E+04 E0= -.11619995E+04  d E =-.246530E-01  mag=     1.0005
       N       E                     dE             d eps       ncg     rms          rms(c)
DAV:   1    -0.116196724632E+04    0.32270E-01   -0.76547E+00  1568   0.474E+00    0.924E-01
RMM:   2    -0.116201074012E+04   -0.43494E-01   -0.45724E-01  1757   0.873E-01    0.704E-01
RMM:   3    -0.116201857725E+04   -0.78371E-02   -0.85579E-02  1715   0.343E-01    0.549E-01
RMM:   4    -0.116201887560E+04   -0.29835E-03   -0.20765E-02  1737   0.172E-01    0.348E-01
RMM:   5    -0.116201921551E+04   -0.33990E-03   -0.64386E-03  1674   0.985E-02    0.225E-01
RMM:   6    -0.116201986425E+04   -0.64874E-03   -0.16496E-03  1638   0.560E-02    0.131E-01
RMM:   7    -0.116202016862E+04   -0.30437E-03   -0.53072E-04  1672   0.293E-02    0.929E-02
RMM:   8    -0.116202036795E+04   -0.19934E-03   -0.28116E-04  1598   0.195E-02    0.627E-02
RMM:   9    -0.116202049380E+04   -0.12585E-03   -0.14207E-04  1626   0.138E-02    0.438E-02
RMM:  10    -0.116202053496E+04   -0.41155E-04   -0.41178E-05  1642   0.695E-03    0.396E-02
RMM:  11    -0.116202061702E+04   -0.82057E-04   -0.76855E-05  1588   0.835E-03    0.308E-02
RMM:  12    -0.116202065457E+04   -0.37557E-04   -0.34743E-05  1580   0.548E-03    0.245E-02
RMM:  13    -0.116202069657E+04   -0.41994E-04   -0.68647E-05  1646   0.716E-03    0.157E-02
RMM:  14    -0.116202070615E+04   -0.95851E-05   -0.29060E-05  1497   0.452E-03    0.850E-03
RMM:  15    -0.116202070741E+04   -0.12579E-05   -0.56779E-06  1330   0.263E-03    0.601E-03
RMM:  16    -0.116202070872E+04   -0.13069E-05   -0.34379E-06  1129   0.197E-03    0.402E-03
RMM:  17    -0.116202070936E+04   -0.64118E-06   -0.12078E-06  1050   0.123E-03
   6 F= -.11620207E+04 E0= -.11620206E+04  d E =-.211928E-01  mag=     1.0010
       N       E                     dE             d eps       ncg     rms          rms(c)
DAV:   1    -0.116202040422E+04    0.30450E-03   -0.87134E-02  1696   0.505E-01    0.101E-01
RMM:   2    -0.116202089439E+04   -0.49017E-03   -0.51936E-03  1758   0.936E-02    0.756E-02
RMM:   3    -0.116202097804E+04   -0.83653E-04   -0.91045E-04  1703   0.367E-02    0.572E-02
RMM:   4    -0.116202098958E+04   -0.11542E-04   -0.33535E-04  1711   0.207E-02    0.337E-02
RMM:   5    -0.116202099867E+04   -0.90863E-05   -0.65752E-05  1680   0.101E-02    0.219E-02
RMM:   6    -0.116202100544E+04   -0.67691E-05   -0.15405E-05  1533   0.520E-03    0.143E-02
RMM:   7    -0.116202101022E+04   -0.47764E-05   -0.70103E-06  1372   0.327E-03    0.915E-03
RMM:   8    -0.116202101193E+04   -0.17173E-05   -0.35726E-06  1171   0.225E-03    0.642E-03
RMM:   9    -0.116202101358E+04   -0.16473E-05   -0.17461E-06  1072   0.156E-03    0.457E-03
RMM:  10    -0.116202101411E+04   -0.52997E-06   -0.50041E-07  1019   0.820E-04
   7 F= -.11620210E+04 E0= -.11620210E+04  d E =-.214976E-01  mag=     1.0010
       N       E                     dE             d eps       ncg     rms          rms(c)
DAV:   1    -0.116200563902E+04    0.15375E-01   -0.57571E+00  1568   0.411E+00    0.647E-01
RMM:   2    -0.116202917255E+04   -0.23534E-01   -0.24953E-01  1758   0.684E-01    0.500E-01
RMM:   3    -0.116203382099E+04   -0.46484E-02   -0.48373E-02  1702   0.273E-01    0.398E-01
RMM:   4    -0.116203463096E+04   -0.80998E-03   -0.13412E-02  1797   0.134E-01    0.263E-01
RMM:   5    -0.116203497509E+04   -0.34412E-03   -0.35225E-03  1658   0.732E-02    0.163E-01
RMM:   6    -0.116203534577E+04   -0.37068E-03   -0.86695E-04  1647   0.410E-02    0.975E-02
RMM:   7    -0.116203551605E+04   -0.17028E-03   -0.29557E-04  1675   0.217E-02    0.663E-02
RMM:   8    -0.116203564156E+04   -0.12551E-03   -0.15643E-04  1603   0.145E-02    0.436E-02
RMM:   9    -0.116203571442E+04   -0.72860E-04   -0.70762E-05  1604   0.962E-03    0.333E-02
RMM:  10    -0.116203575199E+04   -0.37577E-04   -0.34932E-05  1559   0.614E-03    0.291E-02
RMM:  11    -0.116203579387E+04   -0.41879E-04   -0.41549E-05  1578   0.611E-03    0.239E-02
RMM:  12    -0.116203582120E+04   -0.27330E-04   -0.33607E-05  1568   0.527E-03    0.167E-02
RMM:  13    -0.116203583909E+04   -0.17893E-04   -0.29849E-05  1465   0.471E-03    0.116E-02
RMM:  14    -0.116203584382E+04   -0.47229E-05   -0.12201E-05  1448   0.321E-03    0.661E-03
RMM:  15    -0.116203584546E+04   -0.16404E-05   -0.36859E-06  1135   0.194E-03    0.442E-03
RMM:  16    -0.116203584628E+04   -0.81795E-06   -0.23948E-06  1092   0.153E-03
   8 F= -.11620358E+04 E0= -.11620357E+04  d E =-.148322E-01  mag=     1.0016
       N       E                     dE             d eps       ncg     rms          rms(c)
DAV:   1    -0.116203576183E+04    0.83627E-04   -0.44312E-02  1696   0.360E-01    0.571E-02
RMM:   2    -0.116203593757E+04   -0.17574E-03   -0.19071E-03  1759   0.601E-02    0.440E-02
RMM:   3    -0.116203597244E+04   -0.34867E-04   -0.35964E-04  1701   0.240E-02    0.349E-02
RMM:   4    -0.116203598209E+04   -0.96538E-05   -0.12097E-04  1752   0.127E-02    0.216E-02
RMM:   5    -0.116203598662E+04   -0.45296E-05   -0.25665E-05  1597   0.623E-03    0.139E-02
RMM:   6    -0.116203598980E+04   -0.31770E-05   -0.63208E-06  1389   0.348E-03    0.860E-03
RMM:   7    -0.116203599148E+04   -0.16804E-05   -0.27002E-06  1114   0.205E-03    0.534E-03
RMM:   8    -0.116203599227E+04   -0.79738E-06   -0.12158E-06  1044   0.135E-03
   9 F= -.11620360E+04 E0= -.11620359E+04  d E =-.149782E-01  mag=     1.0016
       N       E                     dE             d eps       ncg     rms          rms(c)
DAV:   1    -0.116203050460E+04    0.54869E-02   -0.39222E+00  1536   0.337E+00    0.495E-01
RMM:   2    -0.116204292032E+04   -0.12416E-01   -0.13657E-01  1747   0.531E-01    0.394E-01
RMM:   3    -0.116204534106E+04   -0.24207E-02   -0.28589E-02  1720   0.216E-01    0.316E-01
RMM:   4    -0.116204557811E+04   -0.23705E-03   -0.78981E-03  1741   0.108E-01    0.197E-01
RMM:   5    -0.116204577142E+04   -0.19331E-03   -0.21881E-03  1670   0.588E-02    0.121E-01
RMM:   6    -0.116204597397E+04   -0.20255E-03   -0.49925E-04  1682   0.311E-02    0.765E-02
RMM:   7    -0.116204607294E+04   -0.98973E-04   -0.17126E-04  1642   0.168E-02    0.504E-02
RMM:   8    -0.116204613796E+04   -0.65016E-04   -0.96760E-05  1602   0.116E-02    0.318E-02
RMM:   9    -0.116204617909E+04   -0.41133E-04   -0.44749E-05  1582   0.757E-03    0.224E-02
RMM:  10    -0.116204619491E+04   -0.15815E-04   -0.17582E-05  1507   0.434E-03    0.197E-02
RMM:  11    -0.116204621323E+04   -0.18323E-04   -0.17539E-05  1462   0.400E-03    0.166E-02
RMM:  12    -0.116204622843E+04   -0.15202E-04   -0.16620E-05  1367   0.370E-03    0.120E-02
RMM:  13    -0.116204624088E+04   -0.12441E-04   -0.25304E-05  1430   0.426E-03    0.803E-03
RMM:  14    -0.116204624268E+04   -0.18008E-05   -0.65498E-06  1220   0.228E-03    0.435E-03
RMM:  15    -0.116204624316E+04   -0.48083E-06   -0.17622E-06  1067   0.142E-03
  10 F= -.11620462E+04 E0= -.11620461E+04  d E =-.102509E-01  mag=     1.0020
       N       E                     dE             d eps       ncg     rms          rms(c)
DAV:   1    -0.116204623457E+04    0.81019E-05   -0.63914E-03  1760   0.136E-01    0.201E-02
RMM:   2    -0.116204625395E+04   -0.19380E-04   -0.22149E-04  1747   0.214E-02    0.160E-02
RMM:   3    -0.116204625751E+04   -0.35502E-05   -0.43879E-05  1692   0.872E-03    0.128E-02
RMM:   4    -0.116204625844E+04   -0.93751E-06   -0.17704E-05  1595   0.468E-03    0.772E-03
RMM:   5    -0.116204625895E+04   -0.50947E-06   -0.37425E-06  1165   0.240E-03
  11 F= -.11620463E+04 E0= -.11620461E+04  d E =-.102667E-01  mag=     1.0020
       N       E                     dE             d eps       ncg     rms          rms(c)
DAV:   1    -0.116204014119E+04    0.61172E-02   -0.33787E+00  1536   0.311E+00    0.494E-01
RMM:   2    -0.116205262846E+04   -0.12487E-01   -0.13916E-01  1746   0.516E-01    0.382E-01
RMM:   3    -0.116205478821E+04   -0.21598E-02   -0.28180E-02  1723   0.209E-01    0.306E-01
RMM:   4    -0.116205465073E+04    0.13749E-03   -0.81545E-03  1702   0.108E-01    0.180E-01
RMM:   5    -0.116205475077E+04   -0.10005E-03   -0.19748E-03  1657   0.573E-02    0.114E-01
RMM:   6    -0.116205493516E+04   -0.18439E-03   -0.49059E-04  1688   0.308E-02    0.690E-02
RMM:   7    -0.116205501222E+04   -0.77052E-04   -0.16988E-04  1659   0.166E-02    0.460E-02
RMM:   8    -0.116205505348E+04   -0.41264E-04   -0.96574E-05  1606   0.116E-02    0.304E-02
RMM:   9    -0.116205508717E+04   -0.33689E-04   -0.40781E-05  1587   0.754E-03    0.189E-02
RMM:  10    -0.116205509840E+04   -0.11228E-04   -0.14340E-05  1474   0.407E-03    0.165E-02
RMM:  11    -0.116205511223E+04   -0.13831E-04   -0.13487E-05  1423   0.361E-03    0.139E-02
RMM:  12    -0.116205512242E+04   -0.10193E-04   -0.86809E-06  1210   0.276E-03    0.114E-02
RMM:  13    -0.116205513402E+04   -0.11596E-04   -0.19765E-05  1373   0.383E-03    0.778E-03
RMM:  14    -0.116205513723E+04   -0.32141E-05   -0.11392E-05  1231   0.270E-03    0.401E-03
RMM:  15    -0.116205513721E+04    0.18001E-07   -0.16725E-06  1057   0.141E-03
  12 F= -.11620551E+04 E0= -.11620550E+04  d E =-.887826E-02  mag=     1.0024
       N       E                     dE             d eps       ncg     rms          rms(c)
DAV:   1    -0.116205507133E+04    0.65900E-04   -0.30473E-02  1664   0.295E-01    0.470E-02
RMM:   2    -0.116205518013E+04   -0.10880E-03   -0.12510E-03  1748   0.490E-02    0.361E-02
RMM:   3    -0.116205519938E+04   -0.19249E-04   -0.24960E-04  1722   0.198E-02    0.292E-02
RMM:   4    -0.116205520118E+04   -0.18019E-05   -0.79731E-05  1683   0.105E-02    0.170E-02
RMM:   5    -0.116205520345E+04   -0.22720E-05   -0.16870E-05  1572   0.539E-03    0.109E-02
RMM:   6    -0.116205520558E+04   -0.21342E-05   -0.46273E-06  1292   0.302E-03    0.662E-03
RMM:   7    -0.116205520640E+04   -0.81570E-06   -0.16069E-06  1059   0.166E-03
  13 F= -.11620552E+04 E0= -.11620551E+04  d E =-.894745E-02  mag=     1.0024
       N       E                     dE             d eps       ncg     rms          rms(c)
DAV:   1    -0.116204485323E+04    0.10352E-01   -0.33760E+00  1536   0.310E+00    0.511E-01
RMM:   2    -0.116205904956E+04   -0.14196E-01   -0.15731E-01  1750   0.528E-01    0.386E-01
RMM:   3    -0.116206166216E+04   -0.26126E-02   -0.31487E-02  1725   0.212E-01    0.312E-01
RMM:   4    -0.116206167976E+04   -0.17596E-04   -0.83328E-03  1730   0.105E-01    0.190E-01
RMM:   5    -0.116206173449E+04   -0.54733E-04   -0.18849E-03  1631   0.561E-02    0.115E-01
RMM:   6    -0.116206196828E+04   -0.23379E-03   -0.55257E-04  1641   0.329E-02    0.635E-02
RMM:   7    -0.116206203556E+04   -0.67281E-04   -0.17054E-04  1724   0.166E-02    0.461E-02
RMM:   8    -0.116206207895E+04   -0.43394E-04   -0.86919E-05  1583   0.107E-02    0.292E-02
RMM:   9    -0.116206211146E+04   -0.32502E-04   -0.37915E-05  1592   0.699E-03    0.196E-02
RMM:  10    -0.116206212429E+04   -0.12829E-04   -0.14646E-05  1499   0.410E-03    0.173E-02
RMM:  11    -0.116206214134E+04   -0.17059E-04   -0.14937E-05  1391   0.371E-03    0.145E-02
RMM:  12    -0.116206215120E+04   -0.98586E-05   -0.83495E-06  1204   0.265E-03    0.127E-02
RMM:  13    -0.116206216484E+04   -0.13640E-04   -0.21149E-05  1370   0.388E-03    0.885E-03
RMM:  14    -0.116206216919E+04   -0.43435E-05   -0.14927E-05  1268   0.300E-03    0.468E-03
RMM:  15    -0.116206216914E+04    0.47199E-07   -0.21609E-06  1082   0.155E-03
  14 F= -.11620622E+04 E0= -.11620620E+04  d E =-.696274E-02  mag=     1.0030
       N       E                     dE             d eps       ncg     rms          rms(c)
DAV:   1    -0.116206216804E+04    0.11503E-05   -0.34526E-04  1792   0.314E-02    0.561E-03
RMM:   2    -0.116206216953E+04   -0.14975E-05   -0.16069E-05  1614   0.542E-03    0.427E-03
RMM:   3    -0.116206216973E+04   -0.19451E-06   -0.30238E-06  1128   0.220E-03
  15 F= -.11620622E+04 E0= -.11620620E+04  d E =-.696333E-02  mag=     1.0030
       N       E                     dE             d eps       ncg     rms          rms(c)
DAV:   1    -0.116205653764E+04    0.56319E-02   -0.25375E+00  1536   0.264E+00    0.409E-01
RMM:   2    -0.116206587595E+04   -0.93383E-02   -0.10491E-01  1744   0.439E-01    0.314E-01
RMM:   3    -0.116206758518E+04   -0.17092E-02   -0.21343E-02  1730   0.177E-01    0.255E-01
RMM:   4    -0.116206755465E+04    0.30533E-04   -0.53483E-03  1734   0.848E-02    0.157E-01
RMM:   5    -0.116206758896E+04   -0.34316E-04   -0.13208E-03  1639   0.468E-02    0.909E-02
RMM:   6    -0.116206774171E+04   -0.15274E-03   -0.36371E-04  1681   0.266E-02    0.513E-02
RMM:   7    -0.116206778044E+04   -0.38735E-04   -0.10574E-04  1717   0.132E-02    0.368E-02
RMM:   8    -0.116206779767E+04   -0.17225E-04   -0.56264E-05  1567   0.876E-03    0.215E-02
RMM:   9    -0.116206781094E+04   -0.13267E-04   -0.20838E-05  1572   0.541E-03    0.143E-02
RMM:  10    -0.116206781714E+04   -0.62039E-05   -0.80705E-06  1329   0.305E-03    0.119E-02
RMM:  11    -0.116206782480E+04   -0.76638E-05   -0.78496E-06  1229   0.275E-03    0.930E-03
RMM:  12    -0.116206782730E+04   -0.25021E-05   -0.23142E-06  1098   0.152E-03    0.853E-03
RMM:  13    -0.116206783274E+04   -0.54349E-05   -0.56464E-06  1155   0.202E-03    0.635E-03
RMM:  14    -0.116206783595E+04   -0.32129E-05   -0.62414E-06  1181   0.200E-03    0.394E-03
RMM:  15    -0.116206783680E+04   -0.84723E-06   -0.25119E-06  1091   0.131E-03
  16 F= -.11620678E+04 E0= -.11620676E+04  d E =-.566707E-02  mag=     1.0034
       N       E                     dE             d eps       ncg     rms          rms(c)
DAV:   1    -0.116206778478E+04    0.51172E-04   -0.21711E-02  1664   0.244E-01    0.378E-02
RMM:   2    -0.116206786146E+04   -0.76683E-04   -0.88902E-04  1745   0.406E-02    0.290E-02
RMM:   3    -0.116206787516E+04   -0.13697E-04   -0.17526E-04  1724   0.164E-02    0.237E-02
RMM:   4    -0.116206787694E+04   -0.17784E-05   -0.54012E-05  1702   0.829E-03    0.143E-02
RMM:   5    -0.116206787820E+04   -0.12645E-05   -0.11222E-05  1526   0.430E-03    0.822E-03
RMM:   6    -0.116206787960E+04   -0.14024E-05   -0.31273E-06  1152   0.248E-03    0.482E-03
RMM:   7    -0.116206787991E+04   -0.30190E-06   -0.84262E-07  1040   0.125E-03
  17 F= -.11620679E+04 E0= -.11620677E+04  d E =-.571018E-02  mag=     1.0034
       N       E                     dE             d eps       ncg     rms          rms(c)
DAV:   1    -0.116206697163E+04    0.90798E-03   -0.19455E+00  1536   0.228E+00    0.333E-01
RMM:   2    -0.116207256899E+04   -0.55974E-02   -0.64899E-02  1740   0.359E-01    0.266E-01
RMM:   3    -0.116207350124E+04   -0.93224E-03   -0.13536E-02  1721   0.146E-01    0.216E-01
RMM:   4    -0.116207331956E+04    0.18167E-03   -0.34305E-03  1697   0.731E-02    0.124E-01
RMM:   5    -0.116207337402E+04   -0.54453E-04   -0.90252E-04  1611   0.396E-02    0.712E-02
RMM:   6    -0.116207347662E+04   -0.10260E-03   -0.26124E-04  1730   0.218E-02    0.433E-02
RMM:   7    -0.116207349889E+04   -0.22270E-04   -0.67198E-05  1678   0.107E-02    0.292E-02
RMM:   8    -0.116207350728E+04   -0.83917E-05   -0.39834E-05  1553   0.742E-03    0.180E-02
RMM:   9    -0.116207351647E+04   -0.91932E-05   -0.17238E-05  1520   0.487E-03    0.104E-02
RMM:  10    -0.116207351858E+04   -0.21031E-05   -0.43631E-06  1188   0.226E-03    0.887E-03
RMM:  11    -0.116207352146E+04   -0.28841E-05   -0.33915E-06  1129   0.198E-03    0.677E-03
RMM:  12    -0.116207352284E+04   -0.13764E-05   -0.10164E-06  1054   0.112E-03    0.609E-03
RMM:  13    -0.116207352526E+04   -0.24262E-05   -0.21427E-06  1082   0.134E-03    0.476E-03
RMM:  14    -0.116207352723E+04   -0.19678E-05   -0.33060E-06  1114   0.148E-03    0.315E-03
RMM:  15    -0.116207352792E+04   -0.68650E-06   -0.19819E-06  1068   0.116E-03
  18 F= -.11620735E+04 E0= -.11620733E+04  d E =-.564801E-02  mag=     1.0037
       N       E                     dE             d eps       ncg     rms          rms(c)
DAV:   1    -0.116207204788E+04    0.14794E-02   -0.74727E-01  1536   0.142E+00    0.207E-01
RMM:   2    -0.116207416998E+04   -0.21221E-02   -0.24949E-02  1737   0.223E-01    0.165E-01
RMM:   3    -0.116207451601E+04   -0.34603E-03   -0.51120E-03  1719   0.906E-02    0.134E-01
RMM:   4    -0.116207446498E+04    0.51030E-04   -0.14011E-03  1692   0.458E-02    0.769E-02
RMM:   5    -0.116207449842E+04   -0.33440E-04   -0.36548E-04  1611   0.248E-02    0.429E-02
RMM:   6    -0.116207453689E+04   -0.38467E-04   -0.98214E-05  1716   0.134E-02    0.269E-02
RMM:   7    -0.116207454430E+04   -0.74163E-05   -0.24681E-05  1605   0.656E-03    0.180E-02
RMM:   8    -0.116207454792E+04   -0.36218E-05   -0.15337E-05  1489   0.467E-03    0.110E-02
RMM:   9    -0.116207455119E+04   -0.32653E-05   -0.63691E-06  1319   0.299E-03    0.648E-03
RMM:  10    -0.116207455203E+04   -0.84085E-06   -0.17937E-06  1075   0.144E-03
  19 F= -.11620746E+04 E0= -.11620743E+04  d E =-.667212E-02  mag=     1.0039
       N       E                     dE             d eps       ncg     rms          rms(c)
DAV:   1    -0.116207466869E+04   -0.11750E-03   -0.19960E+00  1536   0.229E+00    0.313E-01
RMM:   2    -0.116207906639E+04   -0.43977E-02   -0.52612E-02  1726   0.342E-01    0.262E-01
RMM:   3    -0.116207967451E+04   -0.60812E-03   -0.11002E-02  1705   0.141E-01    0.214E-01
RMM:   4    -0.116207941775E+04    0.25676E-03   -0.35878E-03  1656   0.768E-02    0.111E-01
RMM:   5    -0.116207952938E+04   -0.11163E-03   -0.92895E-04  1637   0.399E-02    0.645E-02
RMM:   6    -0.116207960121E+04   -0.71827E-04   -0.20791E-04  1746   0.193E-02    0.421E-02
RMM:   7    -0.116207962221E+04   -0.21008E-04   -0.61390E-05  1619   0.101E-02    0.253E-02
RMM:   8    -0.116207962760E+04   -0.53860E-05   -0.36723E-05  1548   0.719E-03    0.168E-02
RMM:   9    -0.116207963649E+04   -0.88890E-05   -0.16190E-05  1530   0.480E-03    0.995E-03
RMM:  10    -0.116207963862E+04   -0.21346E-05   -0.47018E-06  1177   0.233E-03    0.798E-03
RMM:  11    -0.116207964133E+04   -0.27091E-05   -0.26017E-06  1093   0.175E-03    0.660E-03
RMM:  12    -0.116207964299E+04   -0.16542E-05   -0.12961E-06  1065   0.115E-03    0.567E-03
RMM:  13    -0.116207964518E+04   -0.21963E-05   -0.24409E-06  1094   0.145E-03    0.450E-03
RMM:  14    -0.116207964693E+04   -0.17499E-05   -0.31598E-06  1111   0.144E-03    0.262E-03
RMM:  15    -0.116207964738E+04   -0.44478E-06   -0.12796E-06  1018   0.916E-04
  20 F= -.11620796E+04 E0= -.11620794E+04  d E =-.509535E-02  mag=     1.0042
       N       E                     dE             d eps       ncg     rms          rms(c)
DAV:   1    -0.116207911765E+04    0.52928E-03   -0.45517E-01  1536   0.109E+00    0.149E-01
RMM:   2    -0.116208009583E+04   -0.97819E-03   -0.11969E-02  1729   0.163E-01    0.125E-01
RMM:   3    -0.116208022896E+04   -0.13313E-03   -0.24666E-03  1701   0.673E-02    0.102E-01
RMM:   4    -0.116208018696E+04    0.42005E-04   -0.87001E-04  1653   0.372E-02    0.521E-02
RMM:   5    -0.116208021698E+04   -0.30027E-04   -0.20437E-04  1644   0.189E-02    0.306E-02
RMM:   6    -0.116208023318E+04   -0.16193E-04   -0.46218E-05  1690   0.906E-03    0.199E-02
RMM:   7    -0.116208023762E+04   -0.44472E-05   -0.13067E-05  1547   0.476E-03    0.120E-02
RMM:   8    -0.116208023855E+04   -0.92679E-06   -0.81794E-06  1458   0.345E-03
  21 F= -.11620802E+04 E0= -.11620800E+04  d E =-.568652E-02  mag=     1.0044
       N       E                     dE             d eps       ncg     rms          rms(c)
DAV:   1    -0.116208072306E+04   -0.48543E-03   -0.18312E+00  1536   0.217E+00    0.280E-01
RMM:   2    -0.116208380155E+04   -0.30785E-02   -0.38631E-02  1708   0.310E-01    0.245E-01
RMM:   3    -0.116208413857E+04   -0.33702E-03   -0.83300E-03  1689   0.130E-01    0.204E-01
RMM:   4    -0.116208386763E+04    0.27094E-03   -0.34709E-03  1634   0.771E-02    0.928E-02
RMM:   5    -0.116208399199E+04   -0.12437E-03   -0.77932E-04  1682   0.366E-02    0.608E-02
RMM:   6    -0.116208403049E+04   -0.38492E-04   -0.14676E-04  1678   0.163E-02    0.406E-02
RMM:   7    -0.116208405945E+04   -0.28969E-04   -0.59264E-05  1620   0.980E-03    0.217E-02
RMM:   8    -0.116208406055E+04   -0.10995E-05   -0.34937E-05  1547   0.706E-03    0.142E-02
RMM:   9    -0.116208406630E+04   -0.57461E-05   -0.12743E-05  1518   0.432E-03    0.909E-03
RMM:  10    -0.116208406842E+04   -0.21162E-05   -0.33549E-06  1144   0.210E-03    0.750E-03
RMM:  11    -0.116208407110E+04   -0.26822E-05   -0.25093E-06  1093   0.173E-03    0.602E-03
RMM:  12    -0.116208407250E+04   -0.13965E-05   -0.12394E-06  1061   0.112E-03    0.527E-03
RMM:  13    -0.116208407449E+04   -0.19976E-05   -0.24361E-06  1096   0.147E-03    0.397E-03
RMM:  14    -0.116208407595E+04   -0.14532E-05   -0.30212E-06  1105   0.143E-03    0.245E-03
RMM:  15    -0.116208407617E+04   -0.21928E-06   -0.71721E-07  1007   0.741E-04
  22 F= -.11620841E+04 E0= -.11620838E+04  d E =-.383761E-02  mag=     1.0045
       N       E                     dE             d eps       ncg     rms          rms(c)
DAV:   1    -0.116208403901E+04    0.36940E-04   -0.11497E-01  1536   0.545E-01    0.698E-02
RMM:   2    -0.116208422237E+04   -0.18337E-03   -0.24213E-03  1705   0.776E-02    0.612E-02
RMM:   3    -0.116208424275E+04   -0.20373E-04   -0.52085E-04  1690   0.324E-02    0.511E-02
RMM:   4    -0.116208423301E+04    0.97400E-05   -0.21671E-04  1631   0.193E-02    0.230E-02
RMM:   5    -0.116208424205E+04   -0.90445E-05   -0.48360E-05  1628   0.920E-03    0.151E-02
RMM:   6    -0.116208424511E+04   -0.30613E-05   -0.93163E-06  1506   0.412E-03    0.100E-02
RMM:   7    -0.116208424701E+04   -0.18989E-05   -0.38731E-06  1238   0.253E-03    0.519E-03
RMM:   8    -0.116208424695E+04    0.57931E-07   -0.20147E-06  1073   0.174E-03
  23 F= -.11620842E+04 E0= -.11620840E+04  d E =-.400840E-02  mag=     1.0046
       N       E                     dE             d eps       ncg     rms          rms(c)
DAV:   1    -0.116208523257E+04   -0.98556E-03   -0.11019E+00  1536   0.169E+00    0.216E-01
RMM:   2    -0.116208690736E+04   -0.16748E-02   -0.21975E-02  1693   0.238E-01    0.192E-01
RMM:   3    -0.116208703942E+04   -0.13206E-03   -0.47152E-03  1687   0.100E-01    0.160E-01
RMM:   4    -0.116208685081E+04    0.18861E-03   -0.22300E-03  1607   0.622E-02    0.687E-02
RMM:   5    -0.116208692538E+04   -0.74568E-04   -0.44382E-04  1701   0.285E-02    0.497E-02
RMM:   6    -0.116208694316E+04   -0.17787E-04   -0.80925E-05  1637   0.123E-02    0.327E-02
RMM:   7    -0.116208696403E+04   -0.20862E-04   -0.34358E-05  1623   0.764E-03    0.182E-02
RMM:   8    -0.116208696532E+04   -0.12984E-05   -0.23633E-05  1540   0.588E-03    0.101E-02
RMM:   9    -0.116208696778E+04   -0.24564E-05   -0.69221E-06  1384   0.331E-03    0.639E-03
RMM:  10    -0.116208696864E+04   -0.85689E-06   -0.19334E-06  1077   0.167E-03
  24 F= -.11620870E+04 E0= -.11620867E+04  d E =-.272168E-02  mag=     1.0047
       N       E                     dE             d eps       ncg     rms          rms(c)
DAV:   1    -0.116208699483E+04   -0.27047E-04   -0.50880E-02  1536   0.363E-01    0.464E-02
RMM:   2    -0.116208706942E+04   -0.74588E-04   -0.10145E-03  1692   0.511E-02    0.412E-02
RMM:   3    -0.116208707588E+04   -0.64672E-05   -0.22127E-04  1692   0.215E-02    0.344E-02
RMM:   4    -0.116208707237E+04    0.35186E-05   -0.10316E-04  1607   0.134E-02    0.155E-02
RMM:   5    -0.116208707693E+04   -0.45608E-05   -0.21075E-05  1609   0.616E-03    0.114E-02
RMM:   6    -0.116208707876E+04   -0.18317E-05   -0.43481E-06  1217   0.280E-03    0.755E-03
RMM:   7    -0.116208708039E+04   -0.16304E-05   -0.20368E-06  1074   0.178E-03    0.441E-03
RMM:   8    -0.116208708077E+04   -0.38063E-06   -0.14738E-06  1058   0.142E-03
  25 F= -.11620871E+04 E0= -.11620868E+04  d E =-.283382E-02  mag=     1.0047
       N       E                     dE             d eps       ncg     rms          rms(c)
DAV:   1    -0.116208803301E+04   -0.95262E-03   -0.63650E-01  1536   0.128E+00    0.164E-01
RMM:   2    -0.116208905803E+04   -0.10250E-02   -0.13539E-02  1697   0.184E-01    0.145E-01
RMM:   3    -0.116208914264E+04   -0.84602E-04   -0.28524E-03  1703   0.772E-02    0.122E-01
RMM:   4    -0.116208901564E+04    0.12699E-03   -0.13275E-03  1584   0.483E-02    0.503E-02
RMM:   5    -0.116208906378E+04   -0.48140E-04   -0.26729E-04  1681   0.228E-02    0.364E-02
RMM:   6    -0.116208907548E+04   -0.11697E-04   -0.46955E-05  1613   0.966E-03    0.228E-02
RMM:   7    -0.116208908690E+04   -0.11418E-04   -0.20012E-05  1585   0.595E-03    0.132E-02
RMM:   8    -0.116208908654E+04    0.36288E-06   -0.14997E-05  1512   0.471E-03    0.677E-03
RMM:   9    -0.116208908765E+04   -0.11191E-05   -0.37947E-06  1199   0.254E-03    0.455E-03
RMM:  10    -0.116208908811E+04   -0.45972E-06   -0.10749E-06  1044   0.131E-03
  26 F= -.11620891E+04 E0= -.11620888E+04  d E =-.200735E-02  mag=     1.0047
       N       E                     dE             d eps       ncg     rms          rms(c)
DAV:   1    -0.116208912735E+04   -0.39697E-04   -0.76999E-02  1536   0.447E-01    0.570E-02
RMM:   2    -0.116208924846E+04   -0.12110E-03   -0.16376E-03  1699   0.641E-02    0.506E-02
RMM:   3    -0.116208925838E+04   -0.99223E-05   -0.34721E-04  1700   0.269E-02    0.426E-02
RMM:   4    -0.116208924763E+04    0.10745E-04   -0.16206E-04  1584   0.169E-02    0.178E-02
RMM:   5    -0.116208925421E+04   -0.65803E-05   -0.33477E-05  1650   0.801E-03    0.130E-02
RMM:   6    -0.116208925622E+04   -0.20109E-05   -0.61078E-06  1358   0.342E-03    0.817E-03
RMM:   7    -0.116208925800E+04   -0.17750E-05   -0.25498E-06  1113   0.212E-03    0.486E-03
RMM:   8    -0.116208925811E+04   -0.10663E-06   -0.20962E-06  1075   0.172E-03
  27 F= -.11620893E+04 E0= -.11620890E+04  d E =-.217734E-02  mag=     1.0047
       N       E                     dE             d eps       ncg     rms          rms(c)
DAV:   1    -0.116209028498E+04   -0.10270E-02   -0.44688E-01  1536   0.107E+00    0.136E-01
RMM:   2    -0.116209102409E+04   -0.73911E-03   -0.97671E-03  1707   0.153E-01    0.120E-01
RMM:   3    -0.116209109888E+04   -0.74785E-04   -0.20170E-03  1698   0.640E-02    0.101E-01
RMM:   4    -0.116209104160E+04    0.57281E-04   -0.86221E-04  1596   0.390E-02    0.425E-02
RMM:   5    -0.116209107819E+04   -0.36590E-04   -0.17892E-04  1663   0.184E-02    0.284E-02
RMM:   6    -0.116209109032E+04   -0.12135E-04   -0.33332E-05  1636   0.809E-03    0.180E-02
RMM:   7    -0.116209109700E+04   -0.66778E-05   -0.12368E-05  1537   0.463E-03    0.101E-02
RMM:   8    -0.116209109602E+04    0.97984E-06   -0.10270E-05  1474   0.380E-03    0.544E-03
RMM:   9    -0.116209109667E+04   -0.65339E-06   -0.22370E-06  1099   0.191E-03
  28 F= -.11620911E+04 E0= -.11620908E+04  d E =-.183857E-02  mag=     1.0048
