       N       E                     dE             d eps       ncg     rms          rms(c)
DAV:   1     0.470970693578E+04    0.47097E+04   -0.17877E+05  1888   0.948E+02
DAV:   2    -0.739439144588E+02   -0.47837E+04   -0.43738E+04  2400   0.213E+02
DAV:   3    -0.120047398197E+04   -0.11265E+04   -0.11197E+04  1984   0.111E+02
DAV:   4    -0.124821931132E+04   -0.47745E+02   -0.47437E+02  1920   0.302E+01
DAV:   5    -0.124944347780E+04   -0.12242E+01   -0.12211E+01  2368   0.452E+00    0.770E+01
RMM:   6    -0.123210282277E+04    0.17341E+02   -0.49149E+01  1641   0.779E+00    0.640E+01
RMM:   7    -0.121873220150E+04    0.13371E+02   -0.83782E+00  1558   0.397E+00    0.470E+01
RMM:   8    -0.119766257271E+04    0.21070E+02   -0.22245E+01  1603   0.598E+00    0.324E+01
RMM:   9    -0.118080996434E+04    0.16853E+02   -0.26756E+01  1568   0.671E+00    0.221E+01
RMM:  10    -0.117641356156E+04    0.43964E+01   -0.20491E+01  1538   0.599E+00    0.128E+01
RMM:  11    -0.117754713070E+04   -0.11336E+01   -0.44289E+00  1554   0.314E+00    0.733E+00
RMM:  12    -0.117756779173E+04   -0.20661E-01   -0.57056E-01  1785   0.120E+00    0.570E+00
RMM:  13    -0.117701246999E+04    0.55532E+00   -0.14614E+00  1536   0.150E+00    0.163E+00
RMM:  14    -0.117702527916E+04   -0.12809E-01   -0.19304E-01  1553   0.701E-01    0.919E-01
RMM:  15    -0.117702637567E+04   -0.10965E-02   -0.24834E-02  1579   0.263E-01    0.406E-01
RMM:  16    -0.117702702936E+04   -0.65369E-03   -0.11221E-02  1586   0.154E-01    0.303E-01
RMM:  17    -0.117702634907E+04    0.68029E-03   -0.45014E-03  1608   0.922E-02    0.160E-01
RMM:  18    -0.117702666201E+04   -0.31294E-03   -0.22718E-03  1608   0.654E-02    0.101E-01
RMM:  19    -0.117702676094E+04   -0.98930E-04   -0.36074E-04  1630   0.310E-02    0.829E-02
RMM:  20    -0.117702677727E+04   -0.16327E-04   -0.21991E-04  1539   0.205E-02    0.503E-02
RMM:  21    -0.117702679295E+04   -0.15682E-04   -0.59671E-05  1590   0.122E-02    0.311E-02
RMM:  22    -0.117702680209E+04   -0.91396E-05   -0.80342E-05  1565   0.114E-02    0.191E-02
RMM:  23    -0.117702680159E+04    0.49702E-06   -0.12008E-05  1522   0.565E-03    0.101E-02
RMM:  24    -0.117702679894E+04    0.26511E-05   -0.73102E-06  1352   0.361E-03    0.583E-03
RMM:  25    -0.117702679918E+04   -0.24543E-06   -0.23528E-06  1077   0.196E-03
   1 F= -.11841141E+04 E0= -.11841141E+04  d E =-.118411E+04  mag=     2.0000
       N       E                     dE             d eps       ncg     rms          rms(c)
DAV:   1    -0.117702391091E+04    0.28880E-02   -0.37970E-01  1760   0.131E+00    0.207E-01
RMM:   2    -0.117702574444E+04   -0.18335E-02   -0.20038E-02  1706   0.205E-01    0.167E-01
RMM:   3    -0.117702618296E+04   -0.43852E-03   -0.53985E-03  1823   0.873E-02    0.127E-01
RMM:   4    -0.117702613848E+04    0.44473E-04   -0.72544E-04  1972   0.347E-02    0.108E-01
RMM:   5    -0.117702602053E+04    0.11795E-03   -0.20526E-04  1574   0.195E-02    0.729E-02
RMM:   6    -0.117702597114E+04    0.49394E-04   -0.34692E-04  1546   0.235E-02    0.373E-02
RMM:   7    -0.117702597626E+04   -0.51222E-05   -0.61072E-05  1676   0.121E-02    0.229E-02
RMM:   8    -0.117702597991E+04   -0.36510E-05   -0.21776E-05  1601   0.663E-03    0.144E-02
RMM:   9    -0.117702597843E+04    0.14772E-05   -0.10245E-05  1492   0.421E-03    0.850E-03
RMM:  10    -0.117702597925E+04   -0.81280E-06   -0.77359E-06  1490   0.355E-03
   2 F= -.11841139E+04 E0= -.11841139E+04  d E =0.205048E-03  mag=     2.0000
       N       E                     dE             d eps       ncg     rms          rms(c)
DAV:   1    -0.117702671558E+04   -0.73715E-03   -0.10862E-01  1824   0.699E-01    0.111E-01
RMM:   2    -0.117702716263E+04   -0.44705E-03   -0.51086E-03  1677   0.106E-01    0.886E-02
RMM:   3    -0.117702726405E+04   -0.10141E-03   -0.13314E-03  1729   0.439E-02    0.668E-02
RMM:   4    -0.117702724973E+04    0.14313E-04   -0.18349E-04  1834   0.179E-02    0.565E-02
RMM:   5    -0.117702721708E+04    0.32656E-04   -0.62192E-05  1578   0.108E-02    0.375E-02
RMM:   6    -0.117702720341E+04    0.13666E-04   -0.91697E-05  1542   0.122E-02    0.191E-02
RMM:   7    -0.117702720503E+04   -0.16220E-05   -0.17701E-05  1637   0.645E-03    0.113E-02
RMM:   8    -0.117702720529E+04   -0.25843E-06   -0.54308E-06  1518   0.341E-03
   3 F= -.11841148E+04 E0= -.11841148E+04  d E =-.692502E-03  mag=     2.0000
       N       E                     dE             d eps       ncg     rms          rms(c)
DAV:   1    -0.117702617234E+04    0.10327E-02   -0.25708E-01  1952   0.106E+00    0.174E-01
RMM:   2    -0.117702737775E+04   -0.12054E-02   -0.13077E-02  1715   0.149E-01    0.129E-01
RMM:   3    -0.117702771788E+04   -0.34012E-03   -0.35277E-03  1722   0.605E-02    0.886E-02
RMM:   4    -0.117702772104E+04   -0.31589E-05   -0.43537E-04  1832   0.243E-02    0.751E-02
RMM:   5    -0.117702767852E+04    0.42517E-04   -0.81225E-05  1577   0.126E-02    0.514E-02
RMM:   6    -0.117702765893E+04    0.19592E-04   -0.13368E-04  1543   0.150E-02    0.241E-02
RMM:   7    -0.117702766967E+04   -0.10741E-04   -0.35094E-05  1583   0.842E-03    0.145E-02
RMM:   8    -0.117702767314E+04   -0.34714E-05   -0.64823E-06  1400   0.367E-03    0.106E-02
RMM:   9    -0.117702767330E+04   -0.15932E-06   -0.28610E-06  1150   0.231E-03
   4 F= -.11841157E+04 E0= -.11841157E+04  d E =-.826127E-03  mag=     2.0000
       N       E                     dE             d eps       ncg     rms          rms(c)
DAV:   1    -0.117702766161E+04    0.11530E-04   -0.31669E-04  1792   0.365E-02    0.702E-03
RMM:   2    -0.117702766314E+04   -0.15273E-05   -0.16412E-05  1470   0.539E-03    0.585E-03
RMM:   3    -0.117702766375E+04   -0.61546E-06   -0.44323E-06  1130   0.222E-03
   5 F= -.11841157E+04 E0= -.11841157E+04  d E =-.828882E-03  mag=     2.0000
       N       E                     dE             d eps       ncg     rms          rms(c)
DAV:   1    -0.117702765315E+04    0.99876E-05   -0.17330E-01  1696   0.715E-01    0.104E-01
RMM:   2    -0.117702802691E+04   -0.37376E-03   -0.44299E-03  1688   0.990E-02    0.921E-02
RMM:   3    -0.117702811039E+04   -0.83486E-04   -0.10126E-03  1695   0.407E-02    0.747E-02
RMM:   4    -0.117702810154E+04    0.88531E-05   -0.14882E-04  1823   0.162E-02    0.626E-02
RMM:   5    -0.117702808379E+04    0.17753E-04   -0.83730E-05  1551   0.122E-02    0.364E-02
RMM:   6    -0.117702809078E+04   -0.69900E-05   -0.62085E-05  1553   0.102E-02    0.224E-02
RMM:   7    -0.117702809538E+04   -0.45978E-05   -0.91477E-06  1639   0.464E-03    0.154E-02
RMM:   8    -0.117702809784E+04   -0.24630E-05   -0.50571E-06  1449   0.297E-03    0.939E-03
RMM:   9    -0.117702809765E+04    0.18922E-06   -0.22898E-06  1066   0.204E-03
   6 F= -.11841163E+04 E0= -.11841163E+04  d E =-.642955E-03  mag=     2.0000
