       N       E                     dE             d eps       ncg     rms          rms(c)
DAV:   1     0.473275868118E+04    0.47328E+04   -0.17808E+05  1908   0.920E+02
DAV:   2    -0.102944224659E+03   -0.48357E+04   -0.44256E+04  2520   0.207E+02
DAV:   3    -0.119431606776E+04   -0.10914E+04   -0.10857E+04  2088   0.107E+02
DAV:   4    -0.123799815520E+04   -0.43682E+02   -0.43440E+02  1944   0.282E+01
DAV:   5    -0.123915065182E+04   -0.11525E+01   -0.11500E+01  2304   0.433E+00    0.685E+01
RMM:   6    -0.122179907844E+04    0.17352E+02   -0.33539E+01  1589   0.563E+00    0.577E+01
RMM:   7    -0.120868307603E+04    0.13116E+02   -0.69373E+00  1584   0.294E+00    0.434E+01
RMM:   8    -0.118790149864E+04    0.20782E+02   -0.17725E+01  1584   0.484E+00    0.313E+01
RMM:   9    -0.117120949406E+04    0.16692E+02   -0.26283E+01  1584   0.586E+00    0.209E+01
RMM:  10    -0.116984118442E+04    0.13683E+01   -0.19902E+01  1584   0.505E+00    0.105E+01
RMM:  11    -0.117046906644E+04   -0.62788E+00   -0.20191E+00  1597   0.174E+00    0.732E+00
RMM:  12    -0.116984671476E+04    0.62235E+00   -0.11599E+00  1584   0.109E+00    0.419E+00
RMM:  13    -0.116958433567E+04    0.26238E+00   -0.42437E-01  1584   0.753E-01    0.160E+00
RMM:  14    -0.116954144567E+04    0.42890E-01   -0.15789E-01  1584   0.441E-01    0.829E-01
RMM:  15    -0.116953966584E+04    0.17798E-02   -0.16857E-02  1612   0.153E-01    0.382E-01
RMM:  16    -0.116953949516E+04    0.17068E-03   -0.24339E-03  1581   0.570E-02    0.281E-01
RMM:  17    -0.116953987124E+04   -0.37608E-03   -0.16078E-03  1584   0.504E-02    0.168E-01
RMM:  18    -0.116953973063E+04    0.14061E-03   -0.48692E-04  1281   0.280E-02    0.828E-02
RMM:  19    -0.116953976835E+04   -0.37724E-04   -0.14962E-04  1074   0.153E-02
   1 F= -.11766857E+04 E0= -.11766857E+04  d E =-.117669E+04  mag=     0.0012
       N       E                     dE             d eps       ncg     rms          rms(c)
DAV:   1    -0.116944629655E+04    0.93434E-01   -0.13664E+01  1692   0.601E+00    0.276E+00
RMM:   2    -0.116953100204E+04   -0.84705E-01   -0.99730E-01  1586   0.106E+00    0.256E+00
RMM:   3    -0.116950999183E+04    0.21010E-01   -0.27608E-02  1773   0.172E-01    0.231E+00
RMM:   4    -0.116951072031E+04   -0.72848E-03   -0.35839E-02  1584   0.193E-01    0.421E-01
RMM:   5    -0.116950873956E+04    0.19808E-02   -0.15779E-03  1291   0.376E-02    0.231E-01
RMM:   6    -0.116950862221E+04    0.11735E-03   -0.24025E-04  1118   0.176E-02    0.141E-01
RMM:   7    -0.116950822300E+04    0.39921E-03   -0.84868E-04  1432   0.306E-02    0.729E-02
RMM:   8    -0.116950814503E+04    0.77978E-04   -0.50623E-04  1220   0.248E-02
   2 F= -.11766563E+04 E0= -.11766563E+04  d E =0.293711E-01  mag=    -0.0001
       N       E                     dE             d eps       ncg     rms          rms(c)
DAV:   1    -0.116951918349E+04   -0.10960E-01   -0.62226E+00  1620   0.404E+00    0.173E+00
RMM:   2    -0.116955802362E+04   -0.38840E-01   -0.45390E-01  1595   0.727E-01    0.179E+00
RMM:   3    -0.116954826814E+04    0.97555E-02   -0.13165E-02  1599   0.119E-01    0.176E+00
RMM:   4    -0.116954719835E+04    0.10698E-02   -0.94851E-03  1578   0.968E-02    0.784E-01
RMM:   5    -0.116954778056E+04   -0.58221E-03   -0.30914E-03  1555   0.606E-02    0.229E-01
RMM:   6    -0.116954744768E+04    0.33288E-03   -0.24359E-04  1101   0.172E-02    0.164E-01
RMM:   7    -0.116954700376E+04    0.44391E-03   -0.11666E-03  1470   0.355E-02    0.717E-02
RMM:   8    -0.116954696640E+04    0.37365E-04   -0.89464E-05  1025   0.118E-02
   3 F= -.11766936E+04 E0= -.11766936E+04  d E =-.794533E-02  mag=     0.0000
       N       E                     dE             d eps       ncg     rms          rms(c)
DAV:   1    -0.116954673840E+04    0.26536E-03   -0.74117E-01  1656   0.153E+00    0.298E-01
RMM:   2    -0.116955081652E+04   -0.40781E-02   -0.47861E-02  1590   0.262E-01    0.260E-01
RMM:   3    -0.116954924772E+04    0.15688E-02   -0.16220E-03  1414   0.507E-02    0.230E-01
RMM:   4    -0.116954867064E+04    0.57708E-03   -0.27935E-03  1584   0.589E-02    0.669E-02
RMM:   5    -0.116954869617E+04   -0.25529E-04   -0.21109E-04  1092   0.189E-02
   4 F= -.11766954E+04 E0= -.11766954E+04  d E =-.175413E-02  mag=    -0.0000
       N       E                     dE             d eps       ncg     rms          rms(c)
DAV:   1    -0.116954876124E+04   -0.90598E-04   -0.42597E-02  1728   0.368E-01    0.707E-02
RMM:   2    -0.116954896689E+04   -0.20565E-03   -0.26571E-03  1422   0.613E-02    0.576E-02
RMM:   3    -0.116954884892E+04    0.11796E-03   -0.91036E-05  1000   0.138E-02    0.468E-02
RMM:   4    -0.116954878897E+04    0.59957E-04   -0.28318E-04  1147   0.191E-02
   5 F= -.11766955E+04 E0= -.11766955E+04  d E =-.184102E-02  mag=     0.0000
       N       E                     dE             d eps       ncg     rms          rms(c)
DAV:   1    -0.116954836072E+04    0.48821E-03   -0.39386E-01  1800   0.116E+00    0.170E-01
RMM:   2    -0.116955080004E+04   -0.24393E-02   -0.26871E-02  1596   0.195E-01    0.139E-01
RMM:   3    -0.116955006120E+04    0.73885E-03   -0.92824E-04  1244   0.365E-02    0.121E-01
RMM:   4    -0.116954990594E+04    0.15525E-03   -0.93448E-04  1556   0.346E-02    0.460E-02
RMM:   5    -0.116954991016E+04   -0.42159E-05   -0.66842E-05  1032   0.110E-02
   6 F= -.11766966E+04 E0= -.11766966E+04  d E =-.112926E-02  mag=    -0.0000
       N       E                     dE             d eps       ncg     rms          rms(c)
DAV:   1    -0.116954990954E+04   -0.35986E-05   -0.54609E-03  1800   0.137E-01    0.252E-02
RMM:   2    -0.116954994137E+04   -0.31829E-04   -0.35329E-04  1100   0.229E-02
   7 F= -.11766966E+04 E0= -.11766966E+04  d E =-.115943E-02  mag=    -0.0000
       N       E                     dE             d eps       ncg     rms          rms(c)
DAV:   1    -0.116955021615E+04   -0.30661E-03   -0.15056E-01  1728   0.643E-01    0.872E-02
RMM:   2    -0.116955079067E+04   -0.57452E-03   -0.64683E-03  1610   0.103E-01    0.691E-02
RMM:   3    -0.116955062519E+04    0.16548E-03   -0.20945E-04  1078   0.200E-02    0.600E-02
RMM:   4    -0.116955065700E+04   -0.31813E-04   -0.19816E-04  1086   0.177E-02
   8 F= -.11766974E+04 E0= -.11766974E+04  d E =-.781616E-03  mag=     0.0000
       N       E                     dE             d eps       ncg     rms          rms(c)
DAV:   1    -0.116955010310E+04    0.52209E-03   -0.31259E-01  1584   0.927E-01    0.137E-01
RMM:   2    -0.116955133965E+04   -0.12366E-02   -0.13796E-02  1608   0.147E-01    0.110E-01
RMM:   3    -0.116955096306E+04    0.37659E-03   -0.45712E-04  1198   0.293E-02    0.947E-02
RMM:   4    -0.116955103172E+04   -0.68660E-04   -0.42343E-04  1320   0.247E-02
   9 F= -.11766979E+04 E0= -.11766979E+04  d E =-.125352E-02  mag=    -0.0000
       N       E                     dE             d eps       ncg     rms          rms(c)
DAV:   1    -0.116955145763E+04   -0.49457E-03   -0.16845E-01  1584   0.634E-01    0.102E-01
RMM:   2    -0.116955179111E+04   -0.33348E-03   -0.42208E-03  1592   0.884E-02    0.891E-02
RMM:   3    -0.116955169158E+04    0.99535E-04   -0.14015E-04  1072   0.183E-02
  10 F= -.11766985E+04 E0= -.11766985E+04  d E =-.609130E-03  mag=     0.0000
       N       E                     dE             d eps       ncg     rms          rms(c)
DAV:   1    -0.116955167274E+04    0.11837E-03   -0.13144E-01  1656   0.560E-01    0.911E-02
RMM:   2    -0.116955191726E+04   -0.24451E-03   -0.31603E-03  1600   0.747E-02    0.789E-02
RMM:   3    -0.116955184177E+04    0.75493E-04   -0.10565E-04  1066   0.156E-02
  11 F= -.11766986E+04 E0= -.11766986E+04  d E =-.714592E-03  mag=    -0.0000
