       N       E                     dE             d eps       ncg     rms          rms(c)
DAV:   1     0.476314611580E+04    0.47631E+04   -0.17784E+05  1908   0.921E+02
DAV:   2    -0.999308734687E+02   -0.48631E+04   -0.44538E+04  2520   0.208E+02
DAV:   3    -0.120108983672E+04   -0.11012E+04   -0.10952E+04  2088   0.108E+02
DAV:   4    -0.124526252653E+04   -0.44173E+02   -0.43923E+02  2016   0.284E+01
DAV:   5    -0.124639809171E+04   -0.11356E+01   -0.11326E+01  2340   0.418E+00    0.684E+01
RMM:   6    -0.122869176663E+04    0.17706E+02   -0.27835E+01  1584   0.512E+00    0.557E+01
RMM:   7    -0.121429495266E+04    0.14397E+02   -0.79805E+00  1584   0.320E+00    0.435E+01
RMM:   8    -0.118779765814E+04    0.26497E+02   -0.32168E+01  1584   0.650E+00    0.281E+01
RMM:   9    -0.117645303968E+04    0.11345E+02   -0.22198E+01  1584   0.540E+00    0.191E+01
RMM:  10    -0.117729865436E+04   -0.84561E+00   -0.16915E+01  1584   0.467E+00    0.930E+00
RMM:  11    -0.117703335167E+04    0.26530E+00   -0.94197E-01  1618   0.123E+00    0.670E+00
RMM:  12    -0.117658421677E+04    0.44913E+00   -0.46803E-01  1584   0.729E-01    0.435E+00
RMM:  13    -0.117628874877E+04    0.29547E+00   -0.89205E-01  1584   0.107E+00    0.163E+00
RMM:  14    -0.117624914200E+04    0.39607E-01   -0.10967E-01  1593   0.359E-01    0.550E-01
RMM:  15    -0.117624952744E+04   -0.38544E-03   -0.95871E-03  1601   0.120E-01    0.388E-01
RMM:  16    -0.117624952279E+04    0.46470E-05   -0.38063E-03  1605   0.738E-02    0.224E-01
RMM:  17    -0.117624962661E+04   -0.10382E-03   -0.16943E-03  1584   0.476E-02    0.134E-01
RMM:  18    -0.117624958488E+04    0.41732E-04   -0.48913E-04  1194   0.255E-02
   1 F= -.11834337E+04 E0= -.11834337E+04  d E =-.118343E+04  mag=     1.0015
       N       E                     dE             d eps       ncg     rms          rms(c)
DAV:   1    -0.117624792215E+04    0.17045E-02   -0.11644E+00  1692   0.166E+00    0.432E-01
RMM:   2    -0.117625041541E+04   -0.24933E-02   -0.34252E-02  1584   0.246E-01    0.438E-01
RMM:   3    -0.117625014198E+04    0.27343E-03   -0.17538E-03  1585   0.481E-02    0.428E-01
RMM:   4    -0.117624900489E+04    0.11371E-02   -0.17914E-03  1584   0.483E-02    0.262E-01
RMM:   5    -0.117624899242E+04    0.12466E-04   -0.32560E-03  1584   0.641E-02    0.889E-02
RMM:   6    -0.117624887379E+04    0.11864E-03   -0.74694E-05  1033   0.128E-02    0.733E-02
RMM:   7    -0.117624878273E+04    0.91059E-04   -0.57815E-04  1430   0.245E-02
   2 F= -.11834336E+04 E0= -.11834336E+04  d E =0.785919E-04  mag=     1.0000
       N       E                     dE             d eps       ncg     rms          rms(c)
DAV:   1    -0.117625118950E+04   -0.23157E-02   -0.30861E-01  1656   0.851E-01    0.222E-01
RMM:   2    -0.117625161504E+04   -0.42554E-03   -0.80340E-03  1584   0.124E-01    0.231E-01
RMM:   3    -0.117625153044E+04    0.84602E-04   -0.31908E-04  1158   0.224E-02
   3 F= -.11834360E+04 E0= -.11834360E+04  d E =-.229692E-02  mag=     1.0000
       N       E                     dE             d eps       ncg     rms          rms(c)
DAV:   1    -0.117625177437E+04   -0.15933E-03   -0.62524E-01  1620   0.129E+00    0.385E-01
RMM:   2    -0.117625144169E+04    0.33268E-03   -0.18419E-02  1584   0.200E-01    0.338E-01
RMM:   3    -0.117624936798E+04    0.20737E-02   -0.14833E-03  1586   0.476E-02    0.272E-01
RMM:   4    -0.117624739578E+04    0.19722E-02   -0.35210E-03  1584   0.656E-02    0.169E-01
RMM:   5    -0.117624695930E+04    0.43649E-03   -0.25107E-03  1584   0.565E-02    0.684E-02
RMM:   6    -0.117624693527E+04    0.24027E-04   -0.10496E-04  1054   0.141E-02
   4 F= -.11834307E+04 E0= -.11834307E+04  d E =0.521548E-02  mag=     1.0000
       N       E                     dE             d eps       ncg     rms          rms(c)
DAV:   1    -0.117625270966E+04   -0.57504E-02   -0.37350E-01  1728   0.996E-01    0.227E-01
RMM:   2    -0.117625297984E+04   -0.27018E-03   -0.10817E-02  1584   0.153E-01    0.190E-01
RMM:   3    -0.117625228638E+04    0.69346E-03   -0.59950E-04  1347   0.317E-02    0.149E-01
RMM:   4    -0.117625159222E+04    0.69416E-03   -0.11973E-03  1580   0.390E-02    0.848E-02
RMM:   5    -0.117625142139E+04    0.17084E-03   -0.67502E-04  1574   0.295E-02    0.388E-02
RMM:   6    -0.117625142203E+04   -0.63860E-06   -0.84528E-05  1007   0.120E-02
   5 F= -.11834357E+04 E0= -.11834357E+04  d E =0.249612E-03  mag=     1.0000
