       N       E                     dE             d eps       ncg     rms          rms(c)
DAV:   1     0.468709146293E+04    0.46871E+04   -0.17567E+05  1908   0.913E+02
DAV:   2    -0.123690628680E+03   -0.48108E+04   -0.43971E+04  2556   0.205E+02
DAV:   3    -0.120495490512E+04   -0.10813E+04   -0.10772E+04  2088   0.106E+02
DAV:   4    -0.124778362891E+04   -0.42829E+02   -0.42614E+02  2052   0.278E+01
DAV:   5    -0.124889041378E+04   -0.11068E+01   -0.11047E+01  2340   0.411E+00    0.648E+01
RMM:   6    -0.123454194556E+04    0.14348E+02   -0.87075E+00  1588   0.323E+00    0.529E+01
RMM:   7    -0.119105069233E+04    0.43491E+02   -0.84660E+01  1590   0.994E+00    0.289E+01
RMM:   8    -0.118170937957E+04    0.93413E+01   -0.29683E+01  1584   0.615E+00    0.161E+01
RMM:   9    -0.118211968220E+04   -0.41030E+00   -0.15037E+01  1584   0.441E+00    0.945E+00
RMM:  10    -0.118156634600E+04    0.55334E+00   -0.13004E+00  1618   0.131E+00    0.519E+00
RMM:  11    -0.118107701930E+04    0.48933E+00   -0.14677E+00  1584   0.133E+00    0.190E+00
RMM:  12    -0.118103434734E+04    0.42672E-01   -0.20807E-01  1587   0.468E-01    0.787E-01
RMM:  13    -0.118101971860E+04    0.14629E-01   -0.88355E-02  1602   0.308E-01    0.315E-01
RMM:  14    -0.118101877345E+04    0.94516E-03   -0.42619E-03  1628   0.802E-02    0.209E-01
RMM:  15    -0.118101884954E+04   -0.76089E-04   -0.29346E-03  1578   0.545E-02    0.148E-01
RMM:  16    -0.118101914523E+04   -0.29569E-03   -0.18982E-03  1585   0.511E-02    0.888E-02
RMM:  17    -0.118101921424E+04   -0.69009E-04   -0.43347E-04  1332   0.242E-02
   1 F= -.11883500E+04 E0= -.11883475E+04  d E =-.118835E+04  mag=    -0.9510
       N       E                     dE             d eps       ncg     rms          rms(c)
DAV:   1    -0.118101698273E+04    0.21625E-02   -0.68313E-01  1584   0.120E+00    0.403E-01
RMM:   2    -0.118101930464E+04   -0.23219E-02   -0.32466E-02  1687   0.204E-01    0.339E-01
RMM:   3    -0.118101817200E+04    0.11326E-02   -0.23964E-03  1633   0.509E-02    0.262E-01
RMM:   4    -0.118101775078E+04    0.42122E-03   -0.27039E-03  1585   0.547E-02    0.143E-01
RMM:   5    -0.118101766759E+04    0.83192E-04   -0.57590E-04  1238   0.254E-02
   2 F= -.11883491E+04 E0= -.11883464E+04  d E =0.864888E-03  mag=    -0.9312
       N       E                     dE             d eps       ncg     rms          rms(c)
DAV:   1    -0.118102024703E+04   -0.24963E-02   -0.24045E-01  1692   0.712E-01    0.230E-01
RMM:   2    -0.118102080733E+04   -0.56030E-03   -0.10234E-02  1665   0.116E-01    0.194E-01
RMM:   3    -0.118102022153E+04    0.58580E-03   -0.84232E-04  1349   0.308E-02    0.147E-01
RMM:   4    -0.118101996515E+04    0.25637E-03   -0.13709E-03  1584   0.394E-02    0.772E-02
RMM:   5    -0.118101993839E+04    0.26762E-04   -0.17897E-04  1088   0.147E-02
   3 F= -.11883510E+04 E0= -.11883484E+04  d E =-.100144E-02  mag=    -0.9341
       N       E                     dE             d eps       ncg     rms          rms(c)
DAV:   1    -0.118102089061E+04   -0.92546E-03   -0.28671E-01  1692   0.838E-01    0.168E-01
RMM:   2    -0.118102116834E+04   -0.27773E-03   -0.69322E-03  1614   0.111E-01    0.153E-01
RMM:   3    -0.118102074537E+04    0.42297E-03   -0.44398E-04  1260   0.274E-02    0.123E-01
RMM:   4    -0.118102032867E+04    0.41670E-03   -0.19821E-03  1584   0.486E-02    0.462E-02
RMM:   5    -0.118102030893E+04    0.19740E-04   -0.45486E-05  1031   0.965E-03
   4 F= -.11883513E+04 E0= -.11883487E+04  d E =-.305975E-03  mag=    -0.9341
       N       E                     dE             d eps       ncg     rms          rms(c)
DAV:   1    -0.118102070771E+04   -0.37905E-03   -0.45014E-02  1728   0.332E-01    0.583E-02
RMM:   2    -0.118102075036E+04   -0.42648E-04   -0.10473E-03  1474   0.432E-02    0.523E-02
RMM:   3    -0.118102068868E+04    0.61679E-04   -0.58637E-05  1006   0.114E-02
   5 F= -.11883517E+04 E0= -.11883491E+04  d E =-.710691E-03  mag=    -0.9337
