       N       E                     dE             d eps       ncg     rms          rms(c)
DAV:   1     0.630569771661E+04    0.63057E+04   -0.16470E+05  1740   0.997E+02
DAV:   2     0.740140003461E+03   -0.55656E+04   -0.50137E+04  2684   0.258E+02
DAV:   3    -0.111531554892E+04   -0.18555E+04   -0.18124E+04  2504   0.147E+02
DAV:   4    -0.125197875861E+04   -0.13666E+03   -0.13453E+03  2112   0.482E+01
DAV:   5    -0.125715256029E+04   -0.51738E+01   -0.51023E+01  2568   0.126E+01    0.799E+01
RMM:   6    -0.123723018372E+04    0.19922E+02   -0.10640E+01  2009   0.682E+00    0.594E+01
RMM:   7    -0.120622132695E+04    0.31009E+02   -0.92741E+01  2132   0.170E+01    0.336E+01
RMM:   8    -0.119724704238E+04    0.89743E+01   -0.19069E+01  2028   0.830E+00    0.284E+01
RMM:   9    -0.118888306788E+04    0.83640E+01   -0.11111E+01  1993   0.688E+00    0.237E+01
RMM:  10    -0.118618768821E+04    0.26954E+01   -0.13040E+01  1921   0.492E+00    0.160E+01
RMM:  11    -0.118758261033E+04   -0.13949E+01   -0.60034E+00  2043   0.418E+00    0.882E+00
RMM:  12    -0.118739137191E+04    0.19124E+00   -0.84153E-01  2032   0.152E+00    0.529E+00
RMM:  13    -0.118681125171E+04    0.58012E+00   -0.81988E-01  1991   0.127E+00    0.231E+00
RMM:  14    -0.118676158594E+04    0.49666E-01   -0.39582E-01  2014   0.888E-01    0.122E+00
RMM:  15    -0.118677120512E+04   -0.96192E-02   -0.66547E-02  2032   0.458E-01    0.104E+00
RMM:  16    -0.118676894033E+04    0.22648E-02   -0.32326E-02  1881   0.315E-01    0.818E-01
RMM:  17    -0.118676709713E+04    0.18432E-02   -0.82550E-03  1336   0.422E-01    0.599E-01
RMM:  18    -0.118676760268E+04   -0.50556E-03   -0.37739E-03  1226   0.398E-01
   1 F= -.11941982E+04 E0= -.11941982E+04  d E =-.119420E+04  mag=    -0.9712
       N       E                     dE             d eps       ncg     rms          rms(c)
DAV:   1    -0.118676833302E+04   -0.12359E-02   -0.31101E-02  2306   0.756E-01    0.447E-01
RMM:   2    -0.118676810515E+04    0.22787E-03   -0.12260E-03   978   0.705E-02
   2 F= -.11941987E+04 E0= -.11941987E+04  d E =-.485027E-03  mag=    -0.9876
