       N       E                     dE             d eps       ncg     rms          rms(c)
DAV:   1     0.463325714368E+04    0.46333E+04   -0.17082E+05  1872   0.899E+02
DAV:   2    -0.128692947529E+03   -0.47620E+04   -0.43310E+04  2556   0.204E+02
DAV:   3    -0.119022460449E+04   -0.10615E+04   -0.10561E+04  2160   0.105E+02
DAV:   4    -0.123115529753E+04   -0.40931E+02   -0.40718E+02  2088   0.272E+01
DAV:   5    -0.123221573213E+04   -0.10604E+01   -0.10585E+01  2340   0.403E+00    0.653E+01
RMM:   6    -0.121777816899E+04    0.14438E+02   -0.23945E+01  1584   0.462E+00    0.515E+01
RMM:   7    -0.120042190312E+04    0.17356E+02   -0.10214E+01  1584   0.365E+00    0.406E+01
RMM:   8    -0.117144553144E+04    0.28976E+02   -0.48816E+01  1584   0.789E+00    0.244E+01
RMM:   9    -0.116675710410E+04    0.46884E+01   -0.22813E+01  1584   0.538E+00    0.131E+01
RMM:  10    -0.116816561839E+04   -0.14085E+01   -0.63486E+00  1586   0.289E+00    0.807E+00
RMM:  11    -0.116756444911E+04    0.60117E+00   -0.19926E+00  1584   0.130E+00    0.488E+00
RMM:  12    -0.116689685963E+04    0.66759E+00   -0.15386E+00  1584   0.133E+00    0.795E-01
RMM:  13    -0.116690134733E+04   -0.44877E-02   -0.38428E-02  1634   0.240E-01    0.543E-01
RMM:  14    -0.116690015860E+04    0.11887E-02   -0.19454E-02  1590   0.146E-01    0.332E-01
RMM:  15    -0.116690056735E+04   -0.40875E-03   -0.97401E-03  1584   0.110E-01    0.222E-01
RMM:  16    -0.116689983114E+04    0.73620E-03   -0.19868E-03  1578   0.477E-02    0.113E-01
RMM:  17    -0.116689985748E+04   -0.26333E-04   -0.98381E-04  1477   0.338E-02
   1 F= -.11741874E+04 E0= -.11741874E+04  d E =-.117419E+04  mag=    -0.0014
       N       E                     dE             d eps       ncg     rms          rms(c)
DAV:   1    -0.116689709665E+04    0.27345E-02   -0.89987E-01  1692   0.146E+00    0.366E-01
RMM:   2    -0.116689913725E+04   -0.20406E-02   -0.25123E-02  1584   0.211E-01    0.356E-01
RMM:   3    -0.116689893807E+04    0.19918E-03   -0.15503E-03  1671   0.470E-02    0.331E-01
RMM:   4    -0.116689813213E+04    0.80593E-03   -0.58230E-03  1584   0.809E-02    0.962E-02
RMM:   5    -0.116689811931E+04    0.12823E-04   -0.28286E-04  1175   0.222E-02
   2 F= -.11741863E+04 E0= -.11741863E+04  d E =0.106805E-02  mag=    -0.0003
       N       E                     dE             d eps       ncg     rms          rms(c)
DAV:   1    -0.116690116313E+04   -0.30310E-02   -0.26213E-01  1872   0.788E-01    0.186E-01
RMM:   2    -0.116690146294E+04   -0.29981E-03   -0.49026E-03  1584   0.991E-02    0.179E-01
RMM:   3    -0.116690136481E+04    0.98126E-04   -0.28053E-04  1174   0.215E-02
   3 F= -.11741892E+04 E0= -.11741892E+04  d E =-.181046E-02  mag=     0.0002
       N       E                     dE             d eps       ncg     rms          rms(c)
DAV:   1    -0.116689879378E+04    0.26692E-02   -0.39633E-01  1764   0.101E+00    0.179E-01
RMM:   2    -0.116689949093E+04   -0.69715E-03   -0.94887E-03  1584   0.147E-01    0.175E-01
RMM:   3    -0.116689938619E+04    0.10474E-03   -0.49357E-04  1282   0.295E-02    0.166E-01
RMM:   4    -0.116689889619E+04    0.49000E-03   -0.25208E-03  1584   0.552E-02    0.587E-02
RMM:   5    -0.116689887922E+04    0.16971E-04   -0.98887E-05  1056   0.143E-02
   4 F= -.11741860E+04 E0= -.11741860E+04  d E =0.318735E-02  mag=     0.0000
       N       E                     dE             d eps       ncg     rms          rms(c)
DAV:   1    -0.116690161237E+04   -0.27162E-02   -0.23785E-01  1728   0.784E-01    0.122E-01
RMM:   2    -0.116690200708E+04   -0.39472E-03   -0.57808E-03  1584   0.115E-01    0.121E-01
RMM:   3    -0.116690194063E+04    0.66456E-04   -0.26302E-04  1170   0.224E-02
   5 F= -.11741896E+04 E0= -.11741896E+04  d E =-.408263E-03  mag=    -0.0000
