       N       E                     dE             d eps       ncg     rms          rms(c)
DAV:   1     0.501155179162E+04    0.50116E+04   -0.17578E+05  1872   0.927E+02
DAV:   2    -0.204457494643E+02   -0.50320E+04   -0.46040E+04  2592   0.217E+02
DAV:   3    -0.119030604615E+04   -0.11699E+04   -0.11642E+04  2052   0.113E+02
DAV:   4    -0.124832084356E+04   -0.58015E+02   -0.57671E+02  2088   0.372E+01
DAV:   5    -0.125040593901E+04   -0.20851E+01   -0.20752E+01  2232   0.599E+00    0.675E+01
RMM:   6    -0.123585157918E+04    0.14554E+02   -0.82782E+00  1844   0.370E+00    0.557E+01
RMM:   7    -0.119347858801E+04    0.42373E+02   -0.10410E+02  1895   0.122E+01    0.330E+01
RMM:   8    -0.118805081087E+04    0.54278E+01   -0.83391E+00  1914   0.794E+00    0.248E+01
RMM:   9    -0.118471157305E+04    0.33392E+01   -0.13207E+01  1728   0.439E+00    0.174E+01
RMM:  10    -0.118480271178E+04   -0.91139E-01   -0.14119E+01  1926   0.678E+00    0.957E+00
RMM:  11    -0.118422766437E+04    0.57505E+00   -0.16485E+00  2003   0.226E+00    0.644E+00
RMM:  12    -0.118370639112E+04    0.52127E+00   -0.13033E+00  1863   0.152E+00    0.435E+00
RMM:  13    -0.118346733516E+04    0.23906E+00   -0.72924E-01  1920   0.137E+00    0.151E+00
RMM:  14    -0.118344321892E+04    0.24116E-01   -0.13924E-01  1845   0.738E-01    0.129E+00
RMM:  15    -0.118343962027E+04    0.35987E-02   -0.24768E-02  1891   0.369E-01    0.123E+00
RMM:  16    -0.118344096372E+04   -0.13434E-02   -0.87024E-03  1878   0.137E-01    0.911E-01
RMM:  17    -0.118343982805E+04    0.11357E-02   -0.29494E-03  1767   0.117E-01    0.781E-01
RMM:  18    -0.118343953930E+04    0.28875E-03   -0.92198E-04  1491   0.627E-02    0.637E-01
RMM:  19    -0.118343949908E+04    0.40219E-04   -0.86307E-04  1538   0.575E-02
   1 F= -.11906671E+04 E0= -.11906671E+04  d E =-.119067E+04  mag=    -0.0046
       N       E                     dE             d eps       ncg     rms          rms(c)
DAV:   1    -0.118343837108E+04    0.11682E-02   -0.24148E-01  1728   0.814E-01    0.276E-01
RMM:   2    -0.118343897652E+04   -0.60544E-03   -0.83748E-03  1739   0.136E-01    0.231E-01
RMM:   3    -0.118343881217E+04    0.16435E-03   -0.11069E-03  1520   0.127E-01    0.210E-01
RMM:   4    -0.118343873710E+04    0.75062E-04   -0.87288E-04  1551   0.444E-02
   2 F= -.11906663E+04 E0= -.11906663E+04  d E =0.856283E-03  mag=     0.0016
       N       E                     dE             d eps       ncg     rms          rms(c)
DAV:   1    -0.118343979952E+04   -0.98736E-03   -0.97157E-02  1764   0.514E-01    0.127E-01
RMM:   2    -0.118343995495E+04   -0.15543E-03   -0.26334E-03  1597   0.818E-02    0.948E-02
RMM:   3    -0.118343985718E+04    0.97770E-04   -0.32231E-04  1187   0.788E-02
   3 F= -.11906675E+04 E0= -.11906675E+04  d E =-.321672E-03  mag=    -0.0002
