       N       E                     dE             d eps       ncg     rms          rms(c)
DAV:   1     0.485958729236E+04    0.48596E+04   -0.17292E+05  1872   0.908E+02
DAV:   2    -0.621403466241E+02   -0.49217E+04   -0.44840E+04  2520   0.207E+02
DAV:   3    -0.118938621167E+04   -0.11272E+04   -0.11222E+04  2088   0.109E+02
DAV:   4    -0.123559243032E+04   -0.46206E+02   -0.45976E+02  2088   0.291E+01
DAV:   5    -0.123676638721E+04   -0.11740E+01   -0.11717E+01  2376   0.429E+00    0.709E+01
RMM:   6    -0.122062408261E+04    0.16142E+02   -0.25258E+01  1646   0.524E+00    0.503E+01
RMM:   7    -0.120588904514E+04    0.14735E+02   -0.82951E+00  1585   0.338E+00    0.411E+01
RMM:   8    -0.117700899484E+04    0.28880E+02   -0.44583E+01  1584   0.768E+00    0.264E+01
RMM:   9    -0.117088920003E+04    0.61198E+01   -0.21398E+01  1587   0.534E+00    0.188E+01
RMM:  10    -0.117013715606E+04    0.75204E+00   -0.71104E+00  1607   0.312E+00    0.103E+01
RMM:  11    -0.117077320905E+04   -0.63605E+00   -0.17598E+00  1602   0.156E+00    0.760E+00
RMM:  12    -0.117025884392E+04    0.51437E+00   -0.10300E+00  1593   0.108E+00    0.297E+00
RMM:  13    -0.117008245553E+04    0.17639E+00   -0.50938E-01  1584   0.816E-01    0.128E+00
RMM:  14    -0.117006429086E+04    0.18165E-01   -0.80909E-02  1617   0.297E-01    0.581E-01
RMM:  15    -0.117006304589E+04    0.12450E-02   -0.92095E-03  1608   0.120E-01    0.371E-01
RMM:  16    -0.117006302384E+04    0.22041E-04   -0.55485E-03  1637   0.834E-02    0.180E-01
RMM:  17    -0.117006332900E+04   -0.30516E-03   -0.72486E-04  1458   0.355E-02    0.128E-01
RMM:  18    -0.117006340279E+04   -0.73790E-04   -0.36582E-04  1164   0.255E-02
   1 F= -.11770827E+04 E0= -.11770827E+04  d E =-.117708E+04  mag=     2.0018
       N       E                     dE             d eps       ncg     rms          rms(c)
DAV:   1    -0.117006013189E+04    0.31971E-02   -0.50327E-01  1836   0.136E+00    0.212E-01
RMM:   2    -0.117006293249E+04   -0.28006E-02   -0.29594E-02  1598   0.224E-01    0.199E-01
RMM:   3    -0.117006261266E+04    0.31982E-03   -0.16950E-03  1737   0.545E-02    0.191E-01
RMM:   4    -0.117006233641E+04    0.27626E-03   -0.33591E-04  1183   0.234E-02    0.147E-01
RMM:   5    -0.117006208146E+04    0.25495E-03   -0.11858E-03  1558   0.396E-02    0.722E-02
RMM:   6    -0.117006206467E+04    0.16791E-04   -0.56395E-05  1037   0.120E-02
   2 F= -.11770816E+04 E0= -.11770816E+04  d E =0.108442E-02  mag=     1.9999
       N       E                     dE             d eps       ncg     rms          rms(c)
DAV:   1    -0.117006359578E+04   -0.15143E-02   -0.19395E-01  1800   0.843E-01    0.127E-01
RMM:   2    -0.117006451268E+04   -0.91689E-03   -0.10030E-02  1592   0.134E-01    0.119E-01
RMM:   3    -0.117006436658E+04    0.14610E-03   -0.49838E-04  1246   0.306E-02    0.113E-01
RMM:   4    -0.117006425666E+04    0.10992E-03   -0.15174E-04  1059   0.177E-02    0.825E-02
RMM:   5    -0.117006415569E+04    0.10097E-03   -0.46593E-04  1410   0.246E-02    0.390E-02
RMM:   6    -0.117006415145E+04    0.42385E-05   -0.27173E-05  1002   0.844E-03
   3 F= -.11770835E+04 E0= -.11770835E+04  d E =-.845840E-03  mag=     2.0000
