       N       E                     dE             d eps       ncg     rms          rms(c)
DAV:   1     0.484360364465E+04    0.48436E+04   -0.17324E+05  1872   0.907E+02
DAV:   2    -0.722600427119E+02   -0.49159E+04   -0.44808E+04  2520   0.207E+02
DAV:   3    -0.119055669196E+04   -0.11183E+04   -0.11128E+04  2088   0.109E+02
DAV:   4    -0.123657720128E+04   -0.46021E+02   -0.45805E+02  2052   0.290E+01
DAV:   5    -0.123775851050E+04   -0.11813E+01   -0.11790E+01  2340   0.430E+00    0.780E+01
RMM:   6    -0.123150438402E+04    0.62541E+01   -0.98453E+01  1784   0.969E+00    0.686E+01
RMM:   7    -0.120987607854E+04    0.21628E+02   -0.92233E+00  1868   0.345E+00    0.450E+01
RMM:   8    -0.119447537606E+04    0.15401E+02   -0.10538E+01  1607   0.359E+00    0.354E+01
RMM:   9    -0.116955891082E+04    0.24916E+02   -0.49679E+01  1594   0.771E+00    0.215E+01
RMM:  10    -0.116780864857E+04    0.17503E+01   -0.10532E+01  1724   0.374E+00    0.155E+01
RMM:  11    -0.116854532120E+04   -0.73667E+00   -0.92391E+00  1662   0.325E+00    0.104E+01
RMM:  12    -0.116812251666E+04    0.42280E+00   -0.64563E-01  1932   0.116E+00    0.626E+00
RMM:  13    -0.116765088381E+04    0.47163E+00   -0.19657E+00  1614   0.148E+00    0.284E+00
RMM:  14    -0.116757784635E+04    0.73037E-01   -0.80667E-02  1858   0.406E-01    0.175E+00
RMM:  15    -0.116756730478E+04    0.10542E-01   -0.51929E-02  1678   0.215E-01    0.136E+00
RMM:  16    -0.116756522079E+04    0.20840E-02   -0.93762E-03  1829   0.121E-01    0.107E+00
RMM:  17    -0.116755992618E+04    0.52946E-02   -0.15913E-02  1707   0.134E-01    0.608E-01
RMM:  18    -0.116755858058E+04    0.13456E-02   -0.10610E-02  1689   0.116E-01    0.266E-01
RMM:  19    -0.116755892526E+04   -0.34468E-03   -0.29324E-03  1738   0.608E-02    0.254E-01
RMM:  20    -0.116755867662E+04    0.24864E-03   -0.11866E-03  1700   0.379E-02    0.152E-01
RMM:  21    -0.116755869959E+04   -0.22970E-04   -0.25857E-04  1200   0.206E-02
   1 F= -.11745935E+04 E0= -.11745896E+04  d E =-.117459E+04  mag=     3.8915
       N       E                     dE             d eps       ncg     rms          rms(c)
DAV:   1    -0.116755745575E+04    0.12209E-02   -0.39691E-01  1836   0.126E+00    0.375E-01
RMM:   2    -0.116755928184E+04   -0.18261E-02   -0.23460E-02  1819   0.207E-01    0.284E-01
RMM:   3    -0.116755880201E+04    0.47984E-03   -0.12865E-03  1920   0.494E-02    0.303E-01
RMM:   4    -0.116755828198E+04    0.52003E-03   -0.34923E-04  1261   0.231E-02    0.224E-01
RMM:   5    -0.116755746842E+04    0.81356E-03   -0.20917E-03  1617   0.482E-02    0.993E-02
RMM:   6    -0.116755741089E+04    0.57525E-04   -0.24883E-04  1210   0.212E-02
   2 F= -.11745926E+04 E0= -.11745881E+04  d E =0.894193E-03  mag=     3.8552
       N       E                     dE             d eps       ncg     rms          rms(c)
DAV:   1    -0.116755903341E+04   -0.15650E-02   -0.16617E-01  1764   0.806E-01    0.376E-01
RMM:   2    -0.116755979576E+04   -0.76235E-03   -0.89525E-03  1817   0.133E-01    0.232E-01
RMM:   3    -0.116755959489E+04    0.20087E-03   -0.68455E-04  1320   0.323E-02    0.291E-01
RMM:   4    -0.116755952997E+04    0.64915E-04   -0.12734E-04  1095   0.170E-02
   3 F= -.11745945E+04 E0= -.11745917E+04  d E =-.970423E-03  mag=     3.9205
