       N       E                     dE             d eps       ncg     rms          rms(c)
DAV:   1     0.515054853358E+04    0.51505E+04   -0.16902E+05  1800   0.913E+02
DAV:   2     0.349428054302E+02   -0.51156E+04   -0.46504E+04  2520   0.217E+02
DAV:   3    -0.117673222062E+04   -0.12117E+04   -0.12047E+04  2124   0.116E+02
DAV:   4    -0.123165786403E+04   -0.54926E+02   -0.54470E+02  2088   0.333E+01
DAV:   5    -0.123395645080E+04   -0.22986E+01   -0.22931E+01  2484   0.658E+00    0.610E+01
RMM:   6    -0.122046403222E+04    0.13492E+02   -0.64887E+00  1765   0.335E+00    0.493E+01
RMM:   7    -0.118302737419E+04    0.37437E+02   -0.48465E+01  1979   0.921E+00    0.300E+01
RMM:   8    -0.117117354902E+04    0.11854E+02   -0.15897E+01  1955   0.691E+00    0.220E+01
RMM:   9    -0.116870631708E+04    0.24672E+01   -0.32158E+01  2012   0.833E+00    0.980E+00
RMM:  10    -0.116880019676E+04   -0.93880E-01   -0.18152E+00  1977   0.412E+00    0.661E+00
RMM:  11    -0.116831252487E+04    0.48767E+00   -0.12888E+00  1944   0.222E+00    0.315E+00
RMM:  12    -0.116818341548E+04    0.12911E+00   -0.56723E-01  2033   0.147E+00    0.904E-01
RMM:  13    -0.116818773617E+04   -0.43207E-02   -0.11629E-01  2070   0.535E-01    0.541E-01
RMM:  14    -0.116818411964E+04    0.36165E-02   -0.25732E-02  2057   0.225E-01    0.344E-01
RMM:  15    -0.116818371318E+04    0.40646E-03   -0.89826E-03  1984   0.134E-01    0.182E-01
RMM:  16    -0.116818394105E+04   -0.22788E-03   -0.13368E-03  1476   0.840E-02    0.123E-01
RMM:  17    -0.116818412583E+04   -0.18478E-03   -0.18248E-03  1826   0.735E-02    0.986E-02
RMM:  18    -0.116818411961E+04    0.62176E-05   -0.54249E-04  1466   0.502E-02
   1 F= -.11758765E+04 E0= -.11758760E+04  d E =-.117588E+04  mag=     1.9874
       N       E                     dE             d eps       ncg     rms          rms(c)
DAV:   1    -0.116818254749E+04    0.15783E-02   -0.33047E-01  1836   0.939E-01    0.177E-01
RMM:   2    -0.116818340081E+04   -0.85332E-03   -0.11220E-02  1944   0.155E-01    0.152E-01
RMM:   3    -0.116818326022E+04    0.14059E-03   -0.79174E-04  1396   0.890E-02    0.132E-01
RMM:   4    -0.116818290666E+04    0.35356E-03   -0.27597E-03  2033   0.837E-02    0.484E-02
RMM:   5    -0.116818288653E+04    0.20131E-04   -0.10373E-04  1085   0.299E-02
   2 F= -.11758761E+04 E0= -.11758756E+04  d E =0.373180E-03  mag=     1.9891
       N       E                     dE             d eps       ncg     rms          rms(c)
DAV:   1    -0.116818437205E+04   -0.14654E-02   -0.10707E-01  1944   0.531E-01    0.926E-02
RMM:   2    -0.116818453782E+04   -0.16577E-03   -0.26048E-03  1790   0.820E-02    0.776E-02
RMM:   3    -0.116818447910E+04    0.58717E-04   -0.22272E-04  1084   0.627E-02
   3 F= -.11758772E+04 E0= -.11758767E+04  d E =-.729317E-03  mag=     1.9901
