       N       E                     dE             d eps       ncg     rms          rms(c)
DAV:   1     0.489638435522E+04    0.48964E+04   -0.17307E+05  1872   0.911E+02
DAV:   2    -0.546938976537E+02   -0.49511E+04   -0.45122E+04  2520   0.208E+02
DAV:   3    -0.119208808334E+04   -0.11374E+04   -0.11322E+04  2088   0.110E+02
DAV:   4    -0.123914717633E+04   -0.47059E+02   -0.46838E+02  1980   0.303E+01
DAV:   5    -0.124050516463E+04   -0.13580E+01   -0.13551E+01  2340   0.483E+00    0.662E+01
RMM:   6    -0.122599925498E+04    0.14506E+02   -0.92754E+00  1614   0.342E+00    0.539E+01
RMM:   7    -0.118675729266E+04    0.39242E+02   -0.81357E+01  1624   0.102E+01    0.322E+01
RMM:   8    -0.118277148778E+04    0.39858E+01   -0.71846E+00  1663   0.319E+00    0.266E+01
RMM:   9    -0.117656701238E+04    0.62045E+01   -0.39303E+01  1592   0.704E+00    0.163E+01
RMM:  10    -0.117729740906E+04   -0.73040E+00   -0.69385E+00  1608   0.338E+00    0.127E+01
RMM:  11    -0.117435017195E+04    0.29472E+01   -0.64107E+00  1679   0.213E+00    0.526E+00
RMM:  12    -0.117414688942E+04    0.20328E+00   -0.78763E-01  1606   0.995E-01    0.562E+00
RMM:  13    -0.117382547033E+04    0.32142E+00   -0.12308E+00  1642   0.892E-01    0.172E+00
RMM:  14    -0.117375751306E+04    0.67957E-01   -0.19042E-01  1604   0.581E-01    0.616E-01
RMM:  15    -0.117375201639E+04    0.54967E-02   -0.17135E-02  1661   0.236E-01    0.525E-01
RMM:  16    -0.117375187350E+04    0.14289E-03   -0.28756E-03  1652   0.560E-02    0.498E-01
RMM:  17    -0.117375092954E+04    0.94396E-03   -0.21792E-03  1591   0.471E-02    0.347E-01
RMM:  18    -0.117375161802E+04   -0.68848E-03   -0.19601E-03  1573   0.456E-02    0.203E-01
RMM:  19    -0.117375145209E+04    0.16594E-03   -0.99704E-04  1600   0.374E-02    0.113E-01
RMM:  20    -0.117375120490E+04    0.24719E-03   -0.25134E-04  1065   0.190E-02    0.582E-02
RMM:  21    -0.117375115832E+04    0.46578E-04   -0.21354E-04  1096   0.179E-02
   1 F= -.11807936E+04 E0= -.11807936E+04  d E =-.118079E+04  mag=    -0.0003
       N       E                     dE             d eps       ncg     rms          rms(c)
DAV:   1    -0.117313049214E+04    0.62071E+00   -0.47678E+01  1728   0.639E+00    0.779E+00
RMM:   2    -0.117357608969E+04   -0.44560E+00   -0.49378E+00  1694   0.124E+00    0.768E+00
RMM:   3    -0.117349365647E+04    0.82433E-01   -0.24119E-01  1655   0.354E-01    0.719E+00
RMM:   4    -0.117350125229E+04   -0.75958E-02   -0.45997E-01  1640   0.570E-01    0.117E+00
RMM:   5    -0.117347120508E+04    0.30047E-01   -0.21763E-02  1622   0.149E-01    0.106E+00
RMM:   6    -0.117346583439E+04    0.53707E-02   -0.48519E-03  1560   0.657E-02    0.653E-01
RMM:   7    -0.117345641974E+04    0.94146E-02   -0.19216E-02  1565   0.115E-01    0.655E-01
RMM:   8    -0.117345584799E+04    0.57176E-03   -0.59616E-03  1447   0.790E-02    0.987E-02
RMM:   9    -0.117345566717E+04    0.18082E-03   -0.11017E-03  1193   0.298E-02    0.640E-02
RMM:  10    -0.117345561989E+04    0.47277E-04   -0.15440E-04  1063   0.143E-02
   2 F= -.11805042E+04 E0= -.11805042E+04  d E =0.289407E+00  mag=     0.0000
       N       E                     dE             d eps       ncg     rms          rms(c)
DAV:   1    -0.117364585684E+04   -0.19019E+00   -0.26741E+01  1764   0.539E+00    0.587E+00
RMM:   2    -0.117387063302E+04   -0.22478E+00   -0.26546E+00  1657   0.814E-01    0.575E+00
RMM:   3    -0.117379954539E+04    0.71088E-01   -0.12738E-01  1562   0.248E-01    0.566E+00
RMM:   4    -0.117378242332E+04    0.17122E-01   -0.47367E-02  1650   0.149E-01    0.374E+00
RMM:   5    -0.117378688609E+04   -0.44628E-02   -0.69646E-02  1625   0.198E-01    0.652E-01
RMM:   6    -0.117378179214E+04    0.50939E-02   -0.87699E-03  1587   0.724E-02    0.345E-01
RMM:   7    -0.117378013673E+04    0.16554E-02   -0.58252E-03  1476   0.580E-02    0.206E-01
RMM:   8    -0.117377969402E+04    0.44271E-03   -0.14427E-03  1266   0.326E-02    0.125E-01
RMM:   9    -0.117377949529E+04    0.19873E-03   -0.11686E-03  1091   0.285E-02    0.651E-02
RMM:  10    -0.117377943053E+04    0.64759E-04   -0.14736E-04  1030   0.134E-02
   3 F= -.11808235E+04 E0= -.11808235E+04  d E =-.298817E-01  mag=    -0.0000
