       N       E                     dE             d eps       ncg     rms          rms(c)
DAV:   1     0.494186691204E+04    0.49419E+04   -0.16921E+05  1800   0.906E+02
DAV:   2    -0.293919087206E+02   -0.49713E+04   -0.45241E+04  2520   0.208E+02
DAV:   3    -0.117893306369E+04   -0.11495E+04   -0.11417E+04  2160   0.111E+02
DAV:   4    -0.122511716383E+04   -0.46184E+02   -0.45951E+02  2052   0.291E+01
DAV:   5    -0.122629083738E+04   -0.11737E+01   -0.11713E+01  2412   0.426E+00    0.649E+01
RMM:   6    -0.121386873806E+04    0.12422E+02   -0.32567E+01  1584   0.546E+00    0.519E+01
RMM:   7    -0.119992314891E+04    0.13946E+02   -0.58100E+00  1584   0.285E+00    0.435E+01
RMM:   8    -0.116719079129E+04    0.32732E+02   -0.54225E+01  1584   0.830E+00    0.248E+01
RMM:   9    -0.116175278134E+04    0.54380E+01   -0.10071E+01  1584   0.369E+00    0.182E+01
RMM:  10    -0.116144921101E+04    0.30357E+00   -0.16375E+01  1584   0.458E+00    0.811E+00
RMM:  11    -0.116128604661E+04    0.16316E+00   -0.66311E-01  1618   0.102E+00    0.602E+00
RMM:  12    -0.116089850279E+04    0.38754E+00   -0.21776E+00  1584   0.157E+00    0.193E+00
RMM:  13    -0.116074233898E+04    0.15616E+00   -0.26773E-01  1593   0.464E-01    0.117E+00
RMM:  14    -0.116072433882E+04    0.18000E-01   -0.14415E-02  1601   0.130E-01    0.768E-01
RMM:  15    -0.116071601905E+04    0.83198E-02   -0.40607E-02  1584   0.190E-01    0.228E-01
RMM:  16    -0.116071531828E+04    0.70076E-03   -0.28912E-03  1601   0.593E-02    0.164E-01
RMM:  17    -0.116071526582E+04    0.52466E-04   -0.13448E-03  1554   0.384E-02    0.110E-01
RMM:  18    -0.116071534410E+04   -0.78276E-04   -0.72301E-04  1284   0.292E-02
   1 F= -.11680125E+04 E0= -.11680125E+04  d E =-.116801E+04  mag=    -0.0039
       N       E                     dE             d eps       ncg     rms          rms(c)
DAV:   1    -0.116071423900E+04    0.10268E-02   -0.40705E-01  1728   0.989E-01    0.159E-01
RMM:   2    -0.116071517389E+04   -0.93489E-03   -0.10805E-02  1590   0.145E-01    0.147E-01
RMM:   3    -0.116071510491E+04    0.68978E-04   -0.61221E-04  1333   0.313E-02
   2 F= -.11680123E+04 E0= -.11680123E+04  d E =0.152885E-03  mag=     0.0011
       N       E                     dE             d eps       ncg     rms          rms(c)
DAV:   1    -0.116071589094E+04   -0.71706E-03   -0.11115E-01  1836   0.518E-01    0.570E-02
RMM:   2    -0.116071619298E+04   -0.30203E-03   -0.32109E-03  1586   0.853E-02    0.514E-02
RMM:   3    -0.116071617401E+04    0.18967E-04   -0.11772E-04  1029   0.156E-02
   3 F= -.11680134E+04 E0= -.11680134E+04  d E =-.872204E-03  mag=    -0.0001
