       N       E                     dE             d eps       ncg     rms          rms(c)
DAV:   1     0.495578695029E+04    0.49558E+04   -0.17397E+05  1872   0.917E+02
DAV:   2    -0.450911698444E+02   -0.50009E+04   -0.45653E+04  2520   0.208E+02
DAV:   3    -0.119916672647E+04   -0.11541E+04   -0.11498E+04  2088   0.111E+02
DAV:   4    -0.124599328021E+04   -0.46827E+02   -0.46575E+02  1980   0.293E+01
DAV:   5    -0.124721546535E+04   -0.12222E+01   -0.12193E+01  2376   0.439E+00    0.843E+01
RMM:   6    -0.123386478259E+04    0.13351E+02   -0.77201E+00  1584   0.320E+00    0.745E+01
RMM:   7    -0.118752807227E+04    0.46337E+02   -0.87113E+01  1584   0.106E+01    0.544E+01
RMM:   8    -0.118223724234E+04    0.52908E+01   -0.54205E+01  1584   0.834E+00    0.247E+01
RMM:   9    -0.118391040084E+04   -0.16732E+01   -0.67439E+00  1590   0.307E+00    0.123E+01
RMM:  10    -0.118191724631E+04    0.19932E+01   -0.35024E+00  1584   0.206E+00    0.477E+00
RMM:  11    -0.118140369741E+04    0.51355E+00   -0.13630E+00  1584   0.129E+00    0.248E+00
RMM:  12    -0.118135152612E+04    0.52171E-01   -0.19694E-01  1585   0.506E-01    0.109E+00
RMM:  13    -0.118132385789E+04    0.27668E-01   -0.76102E-02  1592   0.292E-01    0.518E-01
RMM:  14    -0.118132521273E+04   -0.13548E-02   -0.41901E-03  1627   0.836E-02    0.370E-01
RMM:  15    -0.118132517611E+04    0.36622E-04   -0.13261E-03  1515   0.387E-02    0.266E-01
RMM:  16    -0.118132446771E+04    0.70840E-03   -0.49532E-03  1586   0.713E-02    0.295E-01
RMM:  17    -0.118132446223E+04    0.54801E-05   -0.53278E-04  1486   0.281E-02
   1 F= -.11887045E+04 E0= -.11886910E+04  d E =-.118870E+04  mag=    -0.2681
       N       E                     dE             d eps       ncg     rms          rms(c)
DAV:   1    -0.118131929548E+04    0.51722E-02   -0.10046E+00  1656   0.151E+00    0.116E+00
RMM:   2    -0.118132121392E+04   -0.19184E-02   -0.28861E-02  1584   0.225E-01    0.112E+00
RMM:   3    -0.118132044479E+04    0.76912E-03   -0.16284E-03  1622   0.504E-02    0.910E-01
RMM:   4    -0.118132005675E+04    0.38805E-03   -0.64029E-03  1584   0.849E-02    0.219E-01
RMM:   5    -0.118131977863E+04    0.27812E-03   -0.27714E-04  1122   0.202E-02    0.131E-01
RMM:   6    -0.118131967394E+04    0.10469E-03   -0.49483E-04  1193   0.208E-02    0.449E-02
RMM:   7    -0.118131968734E+04   -0.13404E-04   -0.48140E-05  1016   0.861E-03
   2 F= -.11887008E+04 E0= -.11886875E+04  d E =0.361106E-02  mag=    -0.2819
       N       E                     dE             d eps       ncg     rms          rms(c)
DAV:   1    -0.118132517492E+04   -0.55010E-02   -0.47095E-01  1620   0.104E+00    0.752E-01
RMM:   2    -0.118132584175E+04   -0.66683E-03   -0.11847E-02  1584   0.148E-01    0.722E-01
RMM:   3    -0.118132541371E+04    0.42804E-03   -0.65572E-04  1298   0.326E-02    0.578E-01
RMM:   4    -0.118132522827E+04    0.18544E-03   -0.30310E-03  1584   0.584E-02    0.150E-01
RMM:   5    -0.118132506867E+04    0.15960E-03   -0.15669E-04  1051   0.146E-02    0.832E-02
RMM:   6    -0.118132504090E+04    0.27770E-04   -0.19828E-04  1074   0.135E-02
   3 F= -.11887054E+04 E0= -.11886921E+04  d E =-.942293E-03  mag=    -0.2852
