       N       E                     dE             d eps       ncg     rms          rms(c)
DAV:   1     0.501429193779E+04    0.50143E+04   -0.17322E+05  1836   0.918E+02
DAV:   2    -0.238123569927E+02   -0.50381E+04   -0.46068E+04  2520   0.211E+02
DAV:   3    -0.118791227131E+04   -0.11641E+04   -0.11592E+04  2160   0.111E+02
DAV:   4    -0.123595621383E+04   -0.48044E+02   -0.47776E+02  2016   0.294E+01
DAV:   5    -0.123736638304E+04   -0.14102E+01   -0.14071E+01  2484   0.443E+00    0.759E+01
RMM:   6    -0.122379880494E+04    0.13568E+02   -0.83051E+00  1584   0.316E+00    0.650E+01
RMM:   7    -0.119029404402E+04    0.33505E+02   -0.69829E+01  1585   0.961E+00    0.439E+01
RMM:   8    -0.118145700067E+04    0.88370E+01   -0.84346E+00  1661   0.238E+00    0.422E+01
RMM:   9    -0.119432881598E+04   -0.12872E+02   -0.98320E+01  1589   0.937E+00    0.273E+01
RMM:  10    -0.119103269804E+04    0.32961E+01   -0.24709E+00  1725   0.177E+00    0.237E+01
RMM:  11    -0.118661143071E+04    0.44213E+01   -0.11374E+00  1613   0.818E-01    0.206E+01
RMM:  12    -0.117924420218E+04    0.73672E+01   -0.68875E+00  1602   0.190E+00    0.125E+01
RMM:  13    -0.117789167213E+04    0.13525E+01   -0.48753E-01  1683   0.548E-01    0.107E+01
RMM:  14    -0.117509300044E+04    0.27987E+01   -0.95492E-01  1612   0.858E-01    0.839E+00
RMM:  15    -0.117343648849E+04    0.16565E+01   -0.82303E-01  1629   0.630E-01    0.610E+00
RMM:  16    -0.117318313535E+04    0.25335E+00   -0.11176E-01  1748   0.237E-01    0.540E+00
RMM:  17    -0.117269152524E+04    0.49161E+00   -0.12139E-01  1713   0.179E-01    0.440E+00
RMM:  18    -0.117277866203E+04   -0.87137E-01   -0.81739E-03  1508   0.513E-02    0.454E+00
RMM:  19    -0.117247287451E+04    0.30579E+00   -0.42831E-02  1695   0.119E-01    0.370E+00
RMM:  20    -0.117202258997E+04    0.45028E+00   -0.29735E-01  1669   0.340E-01    0.740E+00
RMM:  21    -0.117214196541E+04   -0.11938E+00   -0.61190E-02  1776   0.138E-01    0.110E+01
RMM:  22    -0.117232765446E+04   -0.18569E+00   -0.24093E-02  1752   0.959E-02    0.126E+01
RMM:  23    -0.117250919028E+04   -0.18154E+00   -0.14386E-02  1748   0.659E-02    0.185E+01
RMM:  24    -0.117248476357E+04    0.24427E-01   -0.26959E-03  1372   0.478E-02    0.189E+01
RMM:  25    -0.117264120262E+04   -0.15644E+00   -0.29131E-03  1509   0.342E-02    0.224E+01
RMM:  26    -0.117273840791E+04   -0.97205E-01   -0.14095E-03  1308   0.357E-02    0.243E+01
RMM:  27    -0.117266115669E+04    0.77251E-01   -0.59168E-04  1157   0.285E-02    0.227E+01
RMM:  28    -0.117275009788E+04   -0.88941E-01   -0.38838E-04  1124   0.173E-02    0.246E+01
RMM:  29    -0.117261198257E+04    0.13812E+00   -0.84181E-04  1150   0.246E-02    0.219E+01
RMM:  30    -0.117256772986E+04    0.44253E-01   -0.44726E-04  1066   0.244E-02    0.213E+01
RMM:  31    -0.117258857481E+04   -0.20845E-01   -0.61266E-05   965   0.123E-02    0.218E+01
RMM:  32    -0.117270954812E+04   -0.12097E+00   -0.84444E-04  1188   0.225E-02    0.240E+01
RMM:  33    -0.117272012204E+04   -0.10574E-01   -0.35154E-04  1077   0.262E-02    0.239E+01
RMM:  34    -0.117271989287E+04    0.22916E-03   -0.38930E-05   912   0.849E-03    0.238E+01
RMM:  35    -0.117249386611E+04    0.22603E+00   -0.42580E-03  1407   0.350E-02    0.170E+01
RMM:  36    -0.117215389086E+04    0.33998E+00   -0.68148E-02  1649   0.123E-01    0.134E+01
RMM:  37    -0.117202437862E+04    0.12951E+00   -0.55605E-02  1695   0.102E-01    0.113E+01
RMM:  38    -0.117196912859E+04    0.55250E-01   -0.67525E-02  1697   0.122E-01    0.167E+00
RMM:  39    -0.117200941141E+04   -0.40283E-01   -0.56952E-03  1442   0.742E-02    0.230E+00
RMM:  40    -0.117201007802E+04   -0.66661E-03   -0.54348E-03  1649   0.511E-02    0.368E+00
RMM:  41    -0.117203726415E+04   -0.27186E-01   -0.12638E-02  1675   0.669E-02    0.174E+00
RMM:  42    -0.117201897240E+04    0.18292E-01   -0.60319E-03  1598   0.615E-02    0.265E+00
RMM:  43    -0.117201808047E+04    0.89194E-03   -0.78987E-04  1231   0.284E-02    0.205E+00
RMM:  44    -0.117201936554E+04   -0.12851E-02   -0.34529E-04  1090   0.162E-02    0.207E+00
RMM:  45    -0.117206216695E+04   -0.42801E-01   -0.10617E-02  1491   0.519E-02    0.208E+00
RMM:  46    -0.117205664448E+04    0.55225E-02   -0.94725E-04  1094   0.254E-02    0.191E+00
RMM:  47    -0.117206570265E+04   -0.90582E-02   -0.50095E-03  1134   0.371E-02    0.209E+00
RMM:  48    -0.117205293258E+04    0.12770E-01   -0.16763E-03  1072   0.219E-02    0.195E+00
RMM:  49    -0.117202933703E+04    0.23596E-01   -0.23244E-03  1220   0.242E-02    0.150E+00
RMM:  50    -0.117202966140E+04   -0.32437E-03   -0.38534E-04  1045   0.149E-02    0.147E+00
RMM:  51    -0.117202686933E+04    0.27921E-02   -0.60314E-04  1064   0.168E-02    0.144E+00
RMM:  52    -0.117202480413E+04    0.20652E-02   -0.15699E-04   980   0.109E-02    0.146E+00
RMM:  53    -0.117202390623E+04    0.89789E-03   -0.12831E-04   827   0.793E-03    0.147E+00
RMM:  54    -0.117202367731E+04    0.22892E-03   -0.28323E-05   665   0.496E-03    0.148E+00
RMM:  55    -0.117202522777E+04   -0.15505E-02   -0.36240E-05   643   0.476E-03    0.144E+00
RMM:  56    -0.117205237038E+04   -0.27143E-01   -0.45090E-03  1337   0.362E-02    0.189E+00
RMM:  57    -0.117204693779E+04    0.54326E-02   -0.49025E-04  1046   0.211E-02    0.170E+00
RMM:  58    -0.117203731041E+04    0.96274E-02   -0.78219E-04  1091   0.194E-02    0.145E+00
RMM:  59    -0.117204078552E+04   -0.34751E-02   -0.41819E-04  1020   0.165E-02    0.153E+00
RMM:  60    -0.117204118491E+04   -0.39939E-03   -0.10114E-04   994   0.810E-03    0.154E+00
RMM:  61    -0.117204410555E+04   -0.29206E-02   -0.10295E-04   970   0.767E-03    0.159E+00
RMM:  62    -0.117204402565E+04    0.79903E-04   -0.65616E-05   801   0.611E-03
   1 F= -.11791497E+04 E0= -.11791457E+04  d E =-.117915E+04  mag=     0.9194
       N       E                     dE             d eps       ncg     rms          rms(c)
DAV:   1    -0.117200083260E+04    0.43273E-01   -0.24120E+01  1656   0.467E+00    0.110E+01
RMM:   2    -0.117198414001E+04    0.16693E-01   -0.10381E+00  1619   0.733E-01    0.933E+00
RMM:   3    -0.117213056955E+04   -0.14643E+00   -0.22635E-01  1636   0.330E-01    0.110E+01
RMM:   4    -0.117192776576E+04    0.20280E+00   -0.15720E-01  1609   0.210E-01    0.742E+00
RMM:   5    -0.117191580691E+04    0.11959E-01   -0.23672E-01  1592   0.365E-01    0.239E+00
RMM:   6    -0.117194535147E+04   -0.29545E-01   -0.25196E-02  1618   0.124E-01    0.269E+00
RMM:   7    -0.117193313522E+04    0.12216E-01   -0.16061E-02  1610   0.915E-02    0.123E+00
RMM:   8    -0.117193953549E+04   -0.64003E-02   -0.31887E-03  1285   0.398E-02    0.788E-01
RMM:   9    -0.117193938329E+04    0.15220E-03   -0.19938E-03  1575   0.392E-02    0.105E+00
RMM:  10    -0.117193794296E+04    0.14403E-02   -0.10974E-03  1268   0.264E-02    0.283E-01
RMM:  11    -0.117193846743E+04   -0.52447E-03   -0.74769E-04  1084   0.202E-02    0.229E-01
RMM:  12    -0.117193859326E+04   -0.12582E-03   -0.55754E-04  1135   0.203E-02    0.114E-01
RMM:  13    -0.117193857565E+04    0.17610E-04   -0.57357E-05  1005   0.102E-02
   2 F= -.11790448E+04 E0= -.11790430E+04  d E =0.104838E+00  mag=     0.9571
       N       E                     dE             d eps       ncg     rms          rms(c)
DAV:   1    -0.117209577585E+04   -0.15718E+00   -0.14070E+01  1692   0.357E+00    0.135E+01
RMM:   2    -0.117209844615E+04   -0.26703E-02   -0.81618E-01  1613   0.598E-01    0.691E+00
RMM:   3    -0.117206487045E+04    0.33576E-01   -0.52888E-02  1671   0.163E-01    0.737E+00
RMM:   4    -0.117209674881E+04   -0.31878E-01   -0.24875E-01  1602   0.352E-01    0.740E+00
RMM:   5    -0.117203917317E+04    0.57576E-01   -0.46141E-02  1645   0.152E-01    0.148E+00
RMM:   6    -0.117205033288E+04   -0.11160E-01   -0.37856E-03  1590   0.618E-02    0.160E+00
RMM:   7    -0.117204285486E+04    0.74780E-02   -0.43231E-02  1616   0.125E-01    0.586E-01
RMM:   8    -0.117204599718E+04   -0.31423E-02   -0.26684E-03  1295   0.327E-02    0.225E-01
RMM:   9    -0.117204633331E+04   -0.33613E-03   -0.55551E-04  1197   0.210E-02    0.155E-01
RMM:  10    -0.117204629790E+04    0.35406E-04   -0.61366E-04  1153   0.187E-02
   3 F= -.11791520E+04 E0= -.11791507E+04  d E =-.239266E-02  mag=     0.9731
       N       E                     dE             d eps       ncg     rms          rms(c)
DAV:   1    -0.117204764482E+04   -0.13115E-02   -0.12631E+00  1728   0.170E+00    0.208E+00
RMM:   2    -0.117204809903E+04   -0.45421E-03   -0.47215E-02  1594   0.271E-01    0.141E+00
RMM:   3    -0.117204650921E+04    0.15898E-02   -0.34198E-03  1577   0.652E-02    0.538E-01
RMM:   4    -0.117204612732E+04    0.38189E-03   -0.27531E-03  1586   0.557E-02    0.591E-01
RMM:   5    -0.117204571670E+04    0.41062E-03   -0.46570E-03  1585   0.765E-02    0.297E-01
RMM:   6    -0.117204565888E+04    0.57817E-04   -0.32602E-04  1065   0.193E-02
   4 F= -.11791517E+04 E0= -.11791507E+04  d E =0.333133E-03  mag=     0.9753
       N       E                     dE             d eps       ncg     rms          rms(c)
DAV:   1    -0.117204947872E+04   -0.37620E-02   -0.30596E-01  1728   0.839E-01    0.970E-01
RMM:   2    -0.117204937812E+04    0.10061E-03   -0.10656E-02  1604   0.130E-01    0.672E-01
RMM:   3    -0.117204903478E+04    0.34334E-03   -0.78549E-04  1217   0.326E-02    0.268E-01
RMM:   4    -0.117204887190E+04    0.16288E-03   -0.67006E-04  1478   0.304E-02    0.189E-01
RMM:   5    -0.117204876027E+04    0.11163E-03   -0.12852E-03  1581   0.404E-02    0.842E-02
RMM:   6    -0.117204874449E+04    0.15781E-04   -0.64412E-05  1000   0.956E-03
   5 F= -.11791546E+04 E0= -.11791535E+04  d E =-.259832E-02  mag=     0.9746
       N       E                     dE             d eps       ncg     rms          rms(c)
DAV:   1    -0.117205360297E+04   -0.48427E-02   -0.47503E-01  1728   0.946E-01    0.129E+00
RMM:   2    -0.117205290489E+04    0.69808E-03   -0.15088E-02  1618   0.129E-01    0.888E-01
RMM:   3    -0.117205235193E+04    0.55296E-03   -0.10994E-03  1240   0.349E-02    0.412E-01
RMM:   4    -0.117205189664E+04    0.45529E-03   -0.17826E-03  1594   0.448E-02    0.341E-01
RMM:   5    -0.117205171883E+04    0.17782E-03   -0.21758E-03  1588   0.512E-02    0.104E-01
RMM:   6    -0.117205175678E+04   -0.37952E-04   -0.10155E-04  1022   0.122E-02
   6 F= -.11791578E+04 E0= -.11791568E+04  d E =-.313945E-02  mag=     0.9764
       N       E                     dE             d eps       ncg     rms          rms(c)
DAV:   1    -0.117205286477E+04   -0.11459E-02   -0.18647E-01  1728   0.594E-01    0.814E-01
RMM:   2    -0.117205273642E+04    0.12834E-03   -0.61629E-03  1614   0.831E-02    0.557E-01
RMM:   3    -0.117205249206E+04    0.24436E-03   -0.44744E-04  1110   0.232E-02    0.275E-01
RMM:   4    -0.117205244984E+04    0.42218E-04   -0.55355E-04  1382   0.259E-02
   7 F= -.11791586E+04 E0= -.11791576E+04  d E =-.391606E-02  mag=     0.9797
       N       E                     dE             d eps       ncg     rms          rms(c)
DAV:   1    -0.117205397564E+04   -0.14836E-02   -0.45298E-01  1728   0.970E-01    0.324E-01
RMM:   2    -0.117205494476E+04   -0.96912E-03   -0.11985E-02  1593   0.146E-01    0.241E-01
RMM:   3    -0.117205475841E+04    0.18635E-03   -0.68988E-04  1267   0.319E-02    0.283E-01
RMM:   4    -0.117205449585E+04    0.26256E-03   -0.23356E-04  1115   0.202E-02    0.222E-01
RMM:   5    -0.117205433432E+04    0.16153E-03   -0.18440E-03  1580   0.474E-02    0.107E-01
RMM:   6    -0.117205435002E+04   -0.15703E-04   -0.10665E-04  1012   0.114E-02
   8 F= -.11791605E+04 E0= -.11791594E+04  d E =-.189641E-02  mag=     0.9786
       N       E                     dE             d eps       ncg     rms          rms(c)
DAV:   1    -0.117205443235E+04   -0.98032E-04   -0.15914E-02  1728   0.182E-01    0.479E-02
RMM:   2    -0.117205446263E+04   -0.30286E-04   -0.37285E-04  1095   0.262E-02
   9 F= -.11791606E+04 E0= -.11791596E+04  d E =-.200927E-02  mag=     0.9784
       N       E                     dE             d eps       ncg     rms          rms(c)
DAV:   1    -0.117205582747E+04   -0.13951E-02   -0.34629E-01  1656   0.715E-01    0.729E-01
RMM:   2    -0.117205620056E+04   -0.37308E-03   -0.76547E-03  1586   0.958E-02    0.409E-01
RMM:   3    -0.117205613005E+04    0.70508E-04   -0.44674E-04  1127   0.233E-02
  10 F= -.11791622E+04 E0= -.11791612E+04  d E =-.165048E-02  mag=     0.9795
       N       E                     dE             d eps       ncg     rms          rms(c)
DAV:   1    -0.117205517873E+04    0.10218E-02   -0.11383E+00  1656   0.130E+00    0.164E+00
RMM:   2    -0.117205649661E+04   -0.13179E-02   -0.26970E-02  1587   0.172E-01    0.875E-01
RMM:   3    -0.117205631041E+04    0.18619E-03   -0.17703E-03  1315   0.432E-02    0.992E-01
RMM:   4    -0.117205580773E+04    0.50268E-03   -0.25794E-03  1563   0.504E-02    0.486E-01
RMM:   5    -0.117205581344E+04   -0.57137E-05   -0.50327E-04  1210   0.222E-02
  11 F= -.11791619E+04 E0= -.11791609E+04  d E =-.130787E-02  mag=     0.9783
       N       E                     dE             d eps       ncg     rms          rms(c)
DAV:   1    -0.117205637360E+04   -0.56587E-03   -0.25034E-01  1728   0.608E-01    0.531E-01
RMM:   2    -0.117205673963E+04   -0.36603E-03   -0.49396E-03  1578   0.770E-02    0.328E-01
RMM:   3    -0.117205666217E+04    0.77464E-04   -0.29658E-04  1066   0.188E-02
  12 F= -.11791627E+04 E0= -.11791618E+04  d E =-.216797E-02  mag=     0.9773
       N       E                     dE             d eps       ncg     rms          rms(c)
DAV:   1    -0.117205803137E+04   -0.12917E-02   -0.37882E-01  1656   0.920E-01    0.120E+00
RMM:   2    -0.117205826338E+04   -0.23201E-03   -0.12409E-02  1612   0.144E-01    0.573E-01
RMM:   3    -0.117205821310E+04    0.50275E-04   -0.93787E-04  1285   0.347E-02
  13 F= -.11791642E+04 E0= -.11791633E+04  d E =-.144291E-02  mag=     0.9808
       N       E                     dE             d eps       ncg     rms          rms(c)
DAV:   1    -0.117205809964E+04    0.16374E-03   -0.47743E-02  1728   0.330E-01    0.837E-02
RMM:   2    -0.117205828672E+04   -0.18708E-03   -0.19287E-03  1556   0.633E-02    0.121E-01
RMM:   3    -0.117205824668E+04    0.40038E-04   -0.72066E-05   998   0.129E-02
  14 F= -.11791642E+04 E0= -.11791633E+04  d E =-.150800E-02  mag=     0.9799
