       N       E                     dE             d eps       ncg     rms          rms(c)
DAV:   1     0.496250279138E+04    0.49625E+04   -0.17337E+05  1872   0.916E+02
DAV:   2    -0.417774450840E+02   -0.50043E+04   -0.45755E+04  2520   0.209E+02
DAV:   3    -0.119179062003E+04   -0.11500E+04   -0.11453E+04  2196   0.110E+02
DAV:   4    -0.123809589373E+04   -0.46305E+02   -0.46074E+02  2016   0.287E+01
DAV:   5    -0.123953945122E+04   -0.14436E+01   -0.14404E+01  2556   0.443E+00    0.654E+01
RMM:   6    -0.122600226572E+04    0.13537E+02   -0.82602E+00  1587   0.317E+00    0.533E+01
RMM:   7    -0.118498239343E+04    0.41020E+02   -0.72761E+01  1586   0.944E+00    0.321E+01
RMM:   8    -0.118095697622E+04    0.40254E+01   -0.64338E+00  1621   0.279E+00    0.259E+01
RMM:   9    -0.117783240698E+04    0.31246E+01   -0.42183E+01  1586   0.709E+00    0.154E+01
RMM:  10    -0.117805424926E+04   -0.22184E+00   -0.49601E+00  1598   0.260E+00    0.122E+01
RMM:  11    -0.117449825705E+04    0.35560E+01   -0.10371E+01  1584   0.241E+00    0.566E+00
RMM:  12    -0.117435968017E+04    0.13858E+00   -0.28393E-01  1631   0.450E-01    0.378E+00
RMM:  13    -0.117430699465E+04    0.52686E-01   -0.11906E+00  1584   0.784E-01    0.333E+00
RMM:  14    -0.117398168120E+04    0.32531E+00   -0.11732E+00  1584   0.102E+00    0.161E+00
RMM:  15    -0.117394537108E+04    0.36310E-01   -0.11593E-01  1588   0.274E-01    0.615E-01
RMM:  16    -0.117394608479E+04   -0.71371E-03   -0.92629E-03  1609   0.831E-02    0.602E-01
RMM:  17    -0.117393798049E+04    0.81043E-02   -0.98496E-03  1596   0.772E-02    0.286E-01
RMM:  18    -0.117393769015E+04    0.29033E-03   -0.26513E-03  1437   0.375E-02    0.190E-01
RMM:  19    -0.117393816672E+04   -0.47657E-03   -0.19094E-03  1603   0.399E-02    0.122E-01
RMM:  20    -0.117393790098E+04    0.26575E-03   -0.28698E-04  1122   0.144E-02    0.707E-02
RMM:  21    -0.117393780305E+04    0.97932E-04   -0.17335E-04  1059   0.113E-02
   1 F= -.11810556E+04 E0= -.11810556E+04  d E =-.118106E+04  mag=     0.0036
       N       E                     dE             d eps       ncg     rms          rms(c)
DAV:   1    -0.117369302744E+04    0.24487E+00   -0.53013E+01  1656   0.532E+00    0.688E+00
RMM:   2    -0.117381884512E+04   -0.12582E+00   -0.14881E+00  1628   0.828E-01    0.660E+00
RMM:   3    -0.117379228017E+04    0.26565E-01   -0.58599E-02  1685   0.166E-01    0.538E+00
RMM:   4    -0.117381987244E+04   -0.27592E-01   -0.37638E-01  1635   0.399E-01    0.103E+00
RMM:   5    -0.117379023351E+04    0.29639E-01   -0.17709E-02  1603   0.107E-01    0.643E-01
RMM:   6    -0.117378001913E+04    0.10214E-01   -0.72299E-02  1603   0.189E-01    0.277E-01
RMM:   7    -0.117377844550E+04    0.15736E-02   -0.25051E-03  1431   0.426E-02    0.127E-01
RMM:   8    -0.117377817210E+04    0.27340E-03   -0.78810E-04  1285   0.234E-02    0.830E-02
RMM:   9    -0.117377809245E+04    0.79649E-04   -0.68873E-04  1133   0.189E-02
   2 F= -.11809011E+04 E0= -.11809011E+04  d E =0.154493E+00  mag=     0.0001
       N       E                     dE             d eps       ncg     rms          rms(c)
DAV:   1    -0.117394112262E+04   -0.16295E+00   -0.24442E+01  1584   0.374E+00    0.482E+00
RMM:   2    -0.117399854956E+04   -0.57427E-01   -0.68885E-01  1612   0.564E-01    0.482E+00
RMM:   3    -0.117398783868E+04    0.10711E-01   -0.16713E-02  1586   0.857E-02    0.461E+00
RMM:   4    -0.117398534428E+04    0.24944E-02   -0.18637E-01  1658   0.285E-01    0.854E-01
RMM:   5    -0.117398585581E+04   -0.51153E-03   -0.10519E-02  1627   0.637E-02    0.600E-01
RMM:   6    -0.117397375213E+04    0.12104E-01   -0.51545E-02  1604   0.157E-01    0.198E-01
RMM:   7    -0.117397309382E+04    0.65832E-03   -0.10100E-03  1263   0.291E-02    0.113E-01
RMM:   8    -0.117397281877E+04    0.27504E-03   -0.11934E-03  1319   0.272E-02    0.892E-02
RMM:   9    -0.117397271732E+04    0.10146E-03   -0.73133E-04  1162   0.194E-02    0.427E-02
RMM:  10    -0.117397269479E+04    0.22525E-04   -0.45150E-05   955   0.732E-03
   3 F= -.11810921E+04 E0= -.11810921E+04  d E =-.365923E-01  mag=     0.0000
       N       E                     dE             d eps       ncg     rms          rms(c)
DAV:   1    -0.117397545192E+04   -0.27346E-02   -0.10429E+00  1692   0.136E+00    0.430E-01
RMM:   2    -0.117397680180E+04   -0.13499E-02   -0.19707E-02  1635   0.176E-01    0.394E-01
RMM:   3    -0.117397627211E+04    0.52969E-03   -0.13046E-03  1447   0.388E-02    0.337E-01
RMM:   4    -0.117397620522E+04    0.66891E-04   -0.35223E-03  1588   0.586E-02    0.153E-01
RMM:   5    -0.117397613018E+04    0.75040E-04   -0.37307E-04  1130   0.193E-02
   4 F= -.11810962E+04 E0= -.11810962E+04  d E =-.403962E-02  mag=    -0.0000
       N       E                     dE             d eps       ncg     rms          rms(c)
DAV:   1    -0.117397609509E+04    0.11014E-03   -0.47513E-03  1836   0.929E-02    0.441E-02
RMM:   2    -0.117397606434E+04    0.30746E-04   -0.71010E-05   994   0.104E-02
   5 F= -.11810961E+04 E0= -.11810961E+04  d E =-.393134E-02  mag=     0.0000
       N       E                     dE             d eps       ncg     rms          rms(c)
DAV:   1    -0.117397621985E+04   -0.12476E-03   -0.75091E-01  1728   0.126E+00    0.242E-01
RMM:   2    -0.117397737165E+04   -0.11518E-02   -0.15650E-02  1616   0.171E-01    0.226E-01
RMM:   3    -0.117397711648E+04    0.25517E-03   -0.90720E-04  1350   0.352E-02    0.203E-01
RMM:   4    -0.117397689582E+04    0.22066E-03   -0.16934E-03  1544   0.425E-02    0.109E-01
RMM:   5    -0.117397688559E+04    0.10231E-04   -0.14473E-04  1078   0.145E-02
   6 F= -.11810973E+04 E0= -.11810973E+04  d E =-.125487E-02  mag=    -0.0000
       N       E                     dE             d eps       ncg     rms          rms(c)
DAV:   1    -0.117397742664E+04   -0.53082E-03   -0.88116E-02  1728   0.435E-01    0.849E-02
RMM:   2    -0.117397751175E+04   -0.85109E-04   -0.18190E-03  1526   0.582E-02    0.788E-02
RMM:   3    -0.117397743376E+04    0.77987E-04   -0.10759E-04  1010   0.135E-02
   7 F= -.11810977E+04 E0= -.11810977E+04  d E =-.165328E-02  mag=     0.0000
       N       E                     dE             d eps       ncg     rms          rms(c)
DAV:   1    -0.117397823729E+04   -0.72554E-03   -0.43468E-01  1656   0.955E-01    0.137E-01
RMM:   2    -0.117397884709E+04   -0.60980E-03   -0.82450E-03  1586   0.125E-01    0.131E-01
RMM:   3    -0.117397872669E+04    0.12040E-03   -0.41692E-04  1212   0.260E-02    0.122E-01
RMM:   4    -0.117397858763E+04    0.13907E-03   -0.87293E-04  1436   0.301E-02    0.665E-02
RMM:   5    -0.117397858648E+04    0.11416E-05   -0.53441E-05  1018   0.997E-03
   8 F= -.11810990E+04 E0= -.11810990E+04  d E =-.130527E-02  mag=    -0.0000
       N       E                     dE             d eps       ncg     rms          rms(c)
DAV:   1    -0.117397853472E+04    0.52902E-04   -0.50289E-02  1728   0.326E-01    0.626E-02
RMM:   2    -0.117397859822E+04   -0.63500E-04   -0.95979E-04  1438   0.434E-02
   9 F= -.11810991E+04 E0= -.11810991E+04  d E =-.137064E-02  mag=    -0.0000
       N       E                     dE             d eps       ncg     rms          rms(c)
DAV:   1    -0.117397944761E+04   -0.91289E-03   -0.29901E-01  1656   0.806E-01    0.177E-01
RMM:   2    -0.117397976427E+04   -0.31666E-03   -0.52396E-03  1588   0.103E-01    0.168E-01
RMM:   3    -0.117397964961E+04    0.11466E-03   -0.33735E-04  1176   0.241E-02    0.142E-01
RMM:   4    -0.117397971825E+04   -0.68643E-04   -0.12708E-03  1510   0.376E-02    0.483E-02
RMM:   5    -0.117397966051E+04    0.57748E-04   -0.45859E-05  1024   0.877E-03
  10 F= -.11811002E+04 E0= -.11811002E+04  d E =-.109939E-02  mag=    -0.0000
       N       E                     dE             d eps       ncg     rms          rms(c)
DAV:   1    -0.117397971743E+04    0.82405E-06   -0.39949E-02  1728   0.294E-01    0.524E-02
RMM:   2    -0.117397976639E+04   -0.48962E-04   -0.73945E-04  1372   0.396E-02
  11 F= -.11811003E+04 E0= -.11811003E+04  d E =-.121930E-02  mag=    -0.0000
       N       E                     dE             d eps       ncg     rms          rms(c)
DAV:   1    -0.117398080441E+04   -0.10870E-02   -0.16527E-01  1620   0.621E-01    0.111E-01
RMM:   2    -0.117398096928E+04   -0.16487E-03   -0.29629E-03  1584   0.796E-02    0.105E-01
RMM:   3    -0.117398091096E+04    0.58321E-04   -0.16248E-04  1106   0.184E-02
  12 F= -.11811014E+04 E0= -.11811014E+04  d E =-.107003E-02  mag=     0.0000
       N       E                     dE             d eps       ncg     rms          rms(c)
DAV:   1    -0.117397979333E+04    0.11759E-02   -0.10386E+00  1584   0.156E+00    0.203E-01
RMM:   2    -0.117398104810E+04   -0.12548E-02   -0.16466E-02  1584   0.187E-01    0.195E-01
RMM:   3    -0.117398092760E+04    0.12050E-03   -0.99681E-04  1404   0.418E-02    0.181E-01
RMM:   4    -0.117398087667E+04    0.50933E-04   -0.28260E-03  1578   0.579E-02    0.490E-02
RMM:   5    -0.117398081401E+04    0.62651E-04   -0.50358E-05  1058   0.111E-02
  13 F= -.11811011E+04 E0= -.11811011E+04  d E =-.791765E-03  mag=     0.0000
       N       E                     dE             d eps       ncg     rms          rms(c)
DAV:   1    -0.117398126897E+04   -0.39230E-03   -0.30597E-01  1584   0.845E-01    0.102E-01
RMM:   2    -0.117398159625E+04   -0.32728E-03   -0.46575E-03  1584   0.995E-02    0.978E-02
RMM:   3    -0.117398152076E+04    0.75488E-04   -0.24779E-04  1164   0.222E-02
  14 F= -.11811019E+04 E0= -.11811019E+04  d E =-.159515E-02  mag=    -0.0000
       N       E                     dE             d eps       ncg     rms          rms(c)
DAV:   1    -0.117398137146E+04    0.22479E-03   -0.21864E-01  1584   0.758E-01    0.135E-01
RMM:   2    -0.117398179762E+04   -0.42616E-03   -0.55595E-03  1586   0.112E-01    0.132E-01
RMM:   3    -0.117398173416E+04    0.63458E-04   -0.28756E-04  1174   0.226E-02
  15 F= -.11811020E+04 E0= -.11811020E+04  d E =-.504294E-04  mag=     0.0000
       N       E                     dE             d eps       ncg     rms          rms(c)
DAV:   1    -0.117398217358E+04   -0.37596E-03   -0.52264E-02  1728   0.371E-01    0.619E-02
RMM:   2    -0.117398229084E+04   -0.11726E-03   -0.20191E-03  1584   0.677E-02    0.578E-02
RMM:   3    -0.117398224308E+04    0.47762E-04   -0.68098E-05   958   0.126E-02
  16 F= -.11811025E+04 E0= -.11811025E+04  d E =-.629259E-03  mag=    -0.0000
