       N       E                     dE             d eps       ncg     rms          rms(c)
DAV:   1     0.459981588179E+04    0.45998E+04   -0.17577E+05  1888   0.933E+02
DAV:   2    -0.763228834828E+02   -0.46761E+04   -0.42268E+04  2400   0.206E+02
DAV:   3    -0.118315132491E+04   -0.11068E+04   -0.11016E+04  1984   0.109E+02
DAV:   4    -0.122946871672E+04   -0.46317E+02   -0.46007E+02  2016   0.294E+01
DAV:   5    -0.123064902625E+04   -0.11803E+01   -0.11764E+01  2304   0.436E+00    0.664E+01
RMM:   6    -0.121095103697E+04    0.19698E+02   -0.10444E+01  1596   0.377E+00    0.521E+01
RMM:   7    -0.118204473088E+04    0.28906E+02   -0.47127E+01  1576   0.803E+00    0.327E+01
RMM:   8    -0.116676343678E+04    0.15281E+02   -0.25778E+01  1538   0.666E+00    0.231E+01
RMM:   9    -0.115962558909E+04    0.71378E+01   -0.26239E+01  1575   0.680E+00    0.122E+01
RMM:  10    -0.116171413047E+04   -0.20885E+01   -0.81770E+00  1573   0.405E+00    0.777E+00
RMM:  11    -0.116261675769E+04   -0.90263E+00   -0.19667E+00  1544   0.190E+00    0.568E+00
RMM:  12    -0.116234924539E+04    0.26751E+00   -0.15692E+00  1538   0.151E+00    0.185E+00
RMM:  13    -0.116233051197E+04    0.18733E-01   -0.36417E-01  1579   0.816E-01    0.882E-01
RMM:  14    -0.116232547190E+04    0.50401E-02   -0.74751E-02  1570   0.387E-01    0.558E-01
RMM:  15    -0.116232689052E+04   -0.14186E-02   -0.24972E-02  1667   0.215E-01    0.418E-01
RMM:  16    -0.116232730353E+04   -0.41301E-03   -0.62927E-03  1643   0.109E-01    0.374E-01
RMM:  17    -0.116232804476E+04   -0.74122E-03   -0.25335E-03  1647   0.670E-02    0.290E-01
RMM:  18    -0.116232861773E+04   -0.57297E-03   -0.13301E-03  1611   0.460E-02    0.167E-01
RMM:  19    -0.116232864566E+04   -0.27937E-04   -0.95556E-04  1567   0.394E-02    0.899E-02
RMM:  20    -0.116232857300E+04    0.72660E-04   -0.26348E-04  1639   0.186E-02    0.800E-02
RMM:  21    -0.116232859542E+04   -0.22412E-04   -0.96985E-05  1952   0.949E-03    0.910E-02
RMM:  22    -0.116232858219E+04    0.13223E-04   -0.97896E-05  1557   0.113E-02    0.142E-01
RMM:  23    -0.116232858838E+04   -0.61817E-05   -0.28022E-05  1674   0.570E-03    0.146E-01
RMM:  24    -0.116232859004E+04   -0.16691E-05   -0.92666E-06  1386   0.294E-03    0.158E-01
RMM:  25    -0.116232858528E+04    0.47622E-05   -0.37431E-05  1643   0.711E-03    0.105E-01
RMM:  26    -0.116232860377E+04   -0.18485E-04   -0.65216E-05  1760   0.950E-03    0.287E-02
RMM:  27    -0.116232860467E+04   -0.89831E-06   -0.60792E-06  1415   0.349E-03
   1 F= -.11623286E+04 E0= -.11623286E+04  d E =-.116233E+04  mag=     2.9993
       N       E                     dE             d eps       ncg     rms          rms(c)
DAV:   1    -0.116200039343E+04    0.32821E+00   -0.73504E+01  1728   0.133E+01    0.438E+00
RMM:   2    -0.116217782655E+04   -0.17743E+00   -0.19647E+00  1670   0.205E+00    0.381E+00
RMM:   3    -0.116218290551E+04   -0.50790E-02   -0.43664E-01  1673   0.899E-01    0.268E+00
RMM:   4    -0.116218935268E+04   -0.64472E-02   -0.23548E-01  1645   0.590E-01    0.136E+00
RMM:   5    -0.116218524022E+04    0.41125E-02   -0.42739E-02  1742   0.285E-01    0.653E-01
RMM:   6    -0.116218477216E+04    0.46806E-03   -0.18160E-02  1717   0.144E-01    0.462E-01
RMM:   7    -0.116218539190E+04   -0.61974E-03   -0.63500E-03  1627   0.937E-02    0.298E-01
RMM:   8    -0.116218611848E+04   -0.72657E-03   -0.23242E-03  1935   0.551E-02    0.208E-01
RMM:   9    -0.116218635405E+04   -0.23557E-03   -0.71672E-04  1598   0.306E-02    0.128E-01
RMM:  10    -0.116218663178E+04   -0.27774E-03   -0.51821E-04  1639   0.251E-02    0.820E-02
RMM:  11    -0.116218677036E+04   -0.13857E-03   -0.28187E-04  1639   0.174E-02    0.627E-02
RMM:  12    -0.116218688403E+04   -0.11368E-03   -0.17283E-04  1634   0.140E-02    0.509E-02
RMM:  13    -0.116218705317E+04   -0.16913E-03   -0.20729E-04  1644   0.134E-02    0.347E-02
RMM:  14    -0.116218713744E+04   -0.84271E-04   -0.14303E-04  1612   0.102E-02    0.228E-02
RMM:  15    -0.116218717534E+04   -0.37902E-04   -0.72173E-05  1621   0.765E-03    0.172E-02
RMM:  16    -0.116218719017E+04   -0.14836E-04   -0.33066E-05  1620   0.555E-03    0.116E-02
RMM:  17    -0.116218719905E+04   -0.88752E-05   -0.22551E-05  1526   0.462E-03    0.789E-03
RMM:  18    -0.116218720090E+04   -0.18549E-05   -0.74063E-06  1259   0.261E-03    0.463E-03
RMM:  19    -0.116218720160E+04   -0.69106E-06   -0.35460E-06  1157   0.196E-03
   2 F= -.11621872E+04 E0= -.11621872E+04  d E =0.141403E+00  mag=     3.0000
       N       E                     dE             d eps       ncg     rms          rms(c)
DAV:   1    -0.116232515526E+04   -0.13795E+00   -0.28647E+01  1696   0.837E+00    0.276E+00
RMM:   2    -0.116240003528E+04   -0.74880E-01   -0.78188E-01  1699   0.134E+00    0.229E+00
RMM:   3    -0.116240433534E+04   -0.43001E-02   -0.18699E-01  1727   0.572E-01    0.169E+00
RMM:   4    -0.116240605208E+04   -0.17167E-02   -0.83459E-02  1641   0.356E-01    0.832E-01
RMM:   5    -0.116240402355E+04    0.20285E-02   -0.16105E-02  1879   0.171E-01    0.476E-01
RMM:   6    -0.116240332564E+04    0.69791E-03   -0.88436E-03  1692   0.958E-02    0.311E-01
RMM:   7    -0.116240362645E+04   -0.30081E-03   -0.22643E-03  1684   0.574E-02    0.193E-01
RMM:   8    -0.116240384137E+04   -0.21492E-03   -0.10512E-03  1825   0.361E-02    0.135E-01
RMM:   9    -0.116240394866E+04   -0.10729E-03   -0.42153E-04  1626   0.241E-02    0.668E-02
RMM:  10    -0.116240399485E+04   -0.46190E-04   -0.15904E-04  1639   0.146E-02    0.454E-02
RMM:  11    -0.116240403887E+04   -0.44022E-04   -0.10145E-04  1600   0.107E-02    0.344E-02
RMM:  12    -0.116240405407E+04   -0.15200E-04   -0.40202E-05  1673   0.695E-03    0.295E-02
RMM:  13    -0.116240410322E+04   -0.49154E-04   -0.60129E-05  1597   0.766E-03    0.221E-02
RMM:  14    -0.116240412893E+04   -0.25711E-04   -0.39119E-05  1553   0.558E-03    0.172E-02
RMM:  15    -0.116240414812E+04   -0.19187E-04   -0.43018E-05  1601   0.569E-03    0.106E-02
RMM:  16    -0.116240415356E+04   -0.54406E-05   -0.21664E-05  1476   0.402E-03    0.679E-03
RMM:  17    -0.116240415455E+04   -0.98880E-06   -0.55188E-06  1263   0.242E-03
   3 F= -.11624042E+04 E0= -.11624042E+04  d E =-.755499E-01  mag=     3.0000
       N       E                     dE             d eps       ncg     rms          rms(c)
DAV:   1    -0.116238887204E+04    0.15282E-01   -0.85070E+00  1632   0.483E+00    0.131E+00
RMM:   2    -0.116240850106E+04   -0.19629E-01   -0.22605E-01  1678   0.742E-01    0.107E+00
RMM:   3    -0.116240837793E+04    0.12313E-03   -0.49768E-02  1644   0.317E-01    0.748E-01
RMM:   4    -0.116240630755E+04    0.20704E-02   -0.21658E-02  1619   0.195E-01    0.370E-01
RMM:   5    -0.116240715333E+04   -0.84579E-03   -0.44960E-03  1690   0.960E-02    0.212E-01
RMM:   6    -0.116240701834E+04    0.13500E-03   -0.11938E-03  1672   0.434E-02    0.142E-01
RMM:   7    -0.116240696597E+04    0.52365E-04   -0.77028E-04  1613   0.330E-02    0.680E-02
RMM:   8    -0.116240696350E+04    0.24683E-05   -0.21053E-04  1732   0.192E-02    0.451E-02
RMM:   9    -0.116240695242E+04    0.11087E-04   -0.65786E-05  1552   0.106E-02    0.267E-02
RMM:  10    -0.116240695681E+04   -0.43940E-05   -0.33123E-05  1623   0.705E-03    0.173E-02
RMM:  11    -0.116240695908E+04   -0.22689E-05   -0.12230E-05  1665   0.418E-03    0.130E-02
RMM:  12    -0.116240696207E+04   -0.29911E-05   -0.52891E-06  1316   0.278E-03    0.962E-03
RMM:  13    -0.116240696461E+04   -0.25417E-05   -0.48546E-06  1149   0.235E-03    0.707E-03
RMM:  14    -0.116240696726E+04   -0.26480E-05   -0.44270E-06  1138   0.207E-03    0.528E-03
RMM:  15    -0.116240696832E+04   -0.10605E-05   -0.17649E-06  1070   0.135E-03    0.415E-03
RMM:  16    -0.116240696954E+04   -0.12216E-05   -0.23500E-06  1100   0.142E-03    0.295E-03
RMM:  17    -0.116240696993E+04   -0.38864E-06   -0.12003E-06  1044   0.106E-03
   4 F= -.11624070E+04 E0= -.11624070E+04  d E =-.281538E-02  mag=     3.0000
       N       E                     dE             d eps       ncg     rms          rms(c)
DAV:   1    -0.116241659724E+04   -0.96277E-02   -0.19385E+00  1632   0.230E+00    0.631E-01
RMM:   2    -0.116242109897E+04   -0.45017E-02   -0.51571E-02  1683   0.355E-01    0.505E-01
RMM:   3    -0.116242116703E+04   -0.68059E-04   -0.11526E-02  1649   0.152E-01    0.355E-01
RMM:   4    -0.116242072214E+04    0.44489E-03   -0.44959E-03  1630   0.897E-02    0.178E-01
RMM:   5    -0.116242084534E+04   -0.12320E-03   -0.10521E-03  1678   0.454E-02    0.106E-01
RMM:   6    -0.116242079138E+04    0.53960E-04   -0.31358E-04  1622   0.225E-02    0.655E-02
RMM:   7    -0.116242080296E+04   -0.11579E-04   -0.13661E-04  1637   0.144E-02    0.377E-02
RMM:   8    -0.116242079894E+04    0.40200E-05   -0.64946E-05  1590   0.104E-02    0.227E-02
RMM:   9    -0.116242079959E+04   -0.64939E-06   -0.24789E-05  1555   0.675E-03    0.123E-02
RMM:  10    -0.116242079938E+04    0.20332E-06   -0.75448E-06  1492   0.353E-03
   5 F= -.11624208E+04 E0= -.11624208E+04  d E =-.166448E-01  mag=     3.0000
       N       E                     dE             d eps       ncg     rms          rms(c)
DAV:   1    -0.116242412306E+04   -0.33235E-02   -0.27804E+00  1664   0.280E+00    0.519E-01
RMM:   2    -0.116242793317E+04   -0.38101E-02   -0.51676E-02  1627   0.393E-01    0.444E-01
RMM:   3    -0.116242679565E+04    0.11375E-02   -0.11033E-02  1632   0.168E-01    0.327E-01
RMM:   4    -0.116242530079E+04    0.14949E-02   -0.72827E-03  1550   0.118E-01    0.146E-01
RMM:   5    -0.116242539363E+04   -0.92842E-04   -0.16225E-03  1663   0.598E-02    0.101E-01
RMM:   6    -0.116242531877E+04    0.74867E-04   -0.30575E-04  1648   0.244E-02    0.715E-02
RMM:   7    -0.116242530565E+04    0.13112E-04   -0.14258E-04  1601   0.154E-02    0.411E-02
RMM:   8    -0.116242529416E+04    0.11497E-04   -0.14540E-04  1548   0.148E-02    0.206E-02
RMM:   9    -0.116242528756E+04    0.65977E-05   -0.28321E-05  1604   0.772E-03    0.129E-02
RMM:  10    -0.116242528388E+04    0.36778E-05   -0.11998E-05  1526   0.431E-03    0.839E-03
RMM:  11    -0.116242528350E+04    0.38290E-06   -0.48897E-06  1406   0.279E-03
   6 F= -.11624253E+04 E0= -.11624253E+04  d E =-.448411E-02  mag=     3.0000
       N       E                     dE             d eps       ncg     rms          rms(c)
DAV:   1    -0.116242743114E+04   -0.21473E-02   -0.37957E-01  1664   0.104E+00    0.193E-01
RMM:   2    -0.116242795007E+04   -0.51893E-03   -0.70270E-03  1629   0.145E-01    0.164E-01
RMM:   3    -0.116242780373E+04    0.14634E-03   -0.14894E-03  1635   0.621E-02    0.121E-01
RMM:   4    -0.116242761174E+04    0.19199E-03   -0.99912E-04  1553   0.434E-02    0.535E-02
RMM:   5    -0.116242762482E+04   -0.13080E-04   -0.21553E-04  1664   0.218E-02    0.372E-02
RMM:   6    -0.116242761348E+04    0.11346E-04   -0.40740E-05  1625   0.886E-03    0.261E-02
RMM:   7    -0.116242761389E+04   -0.41183E-06   -0.17462E-05  1553   0.548E-03    0.155E-02
RMM:   8    -0.116242761299E+04    0.89347E-06   -0.20443E-05  1543   0.551E-03    0.767E-03
RMM:   9    -0.116242761244E+04    0.55185E-06   -0.41335E-06  1330   0.292E-03
   7 F= -.11624276E+04 E0= -.11624276E+04  d E =-.681306E-02  mag=     3.0000
       N       E                     dE             d eps       ncg     rms          rms(c)
DAV:   1    -0.116242966675E+04   -0.20538E-02   -0.16727E+00  1600   0.217E+00    0.282E-01
RMM:   2    -0.116243192271E+04   -0.22560E-02   -0.29298E-02  1625   0.295E-01    0.257E-01
RMM:   3    -0.116243191023E+04    0.12486E-04   -0.63470E-03  1633   0.126E-01    0.220E-01
RMM:   4    -0.116243114697E+04    0.76325E-03   -0.34960E-03  1586   0.818E-02    0.960E-02
RMM:   5    -0.116243118032E+04   -0.33345E-04   -0.10427E-03  1649   0.452E-02    0.664E-02
RMM:   6    -0.116243112344E+04    0.56879E-04   -0.19294E-04  1660   0.190E-02    0.436E-02
RMM:   7    -0.116243112542E+04   -0.19752E-05   -0.88532E-05  1579   0.121E-02    0.250E-02
RMM:   8    -0.116243111809E+04    0.73266E-05   -0.49192E-05  1578   0.862E-03    0.162E-02
RMM:   9    -0.116243111490E+04    0.31852E-05   -0.19137E-05  1584   0.587E-03    0.856E-03
RMM:  10    -0.116243111401E+04    0.89493E-06   -0.39171E-06  1293   0.288E-03
   8 F= -.11624311E+04 E0= -.11624311E+04  d E =-.350157E-02  mag=     3.0000
       N       E                     dE             d eps       ncg     rms          rms(c)
DAV:   1    -0.116243155632E+04   -0.44141E-03   -0.12174E-01  1664   0.586E-01    0.770E-02
RMM:   2    -0.116243171793E+04   -0.16162E-03   -0.21268E-03  1626   0.798E-02    0.696E-02
RMM:   3    -0.116243171428E+04    0.36566E-05   -0.45636E-04  1627   0.341E-02    0.591E-02
RMM:   4    -0.116243166227E+04    0.52007E-04   -0.26954E-04  1586   0.224E-02    0.256E-02
RMM:   5    -0.116243166520E+04   -0.29341E-05   -0.74028E-05  1652   0.121E-02    0.179E-02
RMM:   6    -0.116243166107E+04    0.41367E-05   -0.13768E-05  1585   0.509E-03    0.118E-02
RMM:   7    -0.116243166156E+04   -0.49517E-06   -0.67354E-06  1483   0.332E-03
   9 F= -.11624317E+04 E0= -.11624317E+04  d E =-.404912E-02  mag=     3.0000
       N       E                     dE             d eps       ncg     rms          rms(c)
DAV:   1    -0.116243251401E+04   -0.85294E-03   -0.12239E+00  1536   0.187E+00    0.229E-01
RMM:   2    -0.116243493073E+04   -0.24167E-02   -0.28085E-02  1686   0.267E-01    0.197E-01
RMM:   3    -0.116243538180E+04   -0.45106E-03   -0.66153E-03  1672   0.114E-01    0.173E-01
RMM:   4    -0.116243522841E+04    0.15338E-03   -0.17674E-03  1677   0.580E-02    0.992E-02
RMM:   5    -0.116243522127E+04    0.71400E-05   -0.64335E-04  1644   0.336E-02    0.571E-02
RMM:   6    -0.116243523630E+04   -0.15028E-04   -0.15243E-04  1654   0.171E-02    0.294E-02
RMM:   7    -0.116243523985E+04   -0.35484E-05   -0.50958E-05  1612   0.925E-03    0.181E-02
RMM:   8    -0.116243523670E+04    0.31533E-05   -0.20780E-05  1556   0.556E-03    0.115E-02
RMM:   9    -0.116243523595E+04    0.74811E-06   -0.11202E-05  1527   0.425E-03    0.666E-03
RMM:  10    -0.116243523607E+04   -0.11962E-06   -0.20850E-06  1079   0.207E-03
  10 F= -.11624352E+04 E0= -.11624352E+04  d E =-.357451E-02  mag=     3.0000
       N       E                     dE             d eps       ncg     rms          rms(c)
DAV:   1    -0.116243523600E+04   -0.54119E-07   -0.13425E-04  1856   0.197E-02    0.358E-03
RMM:   2    -0.116243523642E+04   -0.41905E-06   -0.31422E-06  1205   0.285E-03
  11 F= -.11624352E+04 E0= -.11624352E+04  d E =-.357486E-02  mag=     3.0000
       N       E                     dE             d eps       ncg     rms          rms(c)
DAV:   1    -0.116243452259E+04    0.71341E-03   -0.11720E+00  1536   0.183E+00    0.236E-01
RMM:   2    -0.116243720040E+04   -0.26778E-02   -0.30903E-02  1705   0.271E-01    0.200E-01
RMM:   3    -0.116243773431E+04   -0.53391E-03   -0.73027E-03  1679   0.116E-01    0.173E-01
RMM:   4    -0.116243761366E+04    0.12065E-03   -0.18276E-03  1687   0.584E-02    0.104E-01
RMM:   5    -0.116243759888E+04    0.14784E-04   -0.57827E-04  1630   0.325E-02    0.639E-02
RMM:   6    -0.116243763592E+04   -0.37043E-04   -0.15611E-04  1664   0.179E-02    0.332E-02
RMM:   7    -0.116243764157E+04   -0.56498E-05   -0.51656E-05  1649   0.949E-03    0.222E-02
RMM:   8    -0.116243763971E+04    0.18585E-05   -0.22669E-05  1553   0.579E-03    0.134E-02
RMM:   9    -0.116243764075E+04   -0.10373E-05   -0.10900E-05  1533   0.422E-03    0.763E-03
RMM:  10    -0.116243764159E+04   -0.83770E-06   -0.29126E-06  1121   0.217E-03
  12 F= -.11624376E+04 E0= -.11624376E+04  d E =-.240517E-02  mag=     3.0000
       N       E                     dE             d eps       ncg     rms          rms(c)
DAV:   1    -0.116243764017E+04    0.58676E-06   -0.11712E-02  1664   0.183E-01    0.242E-02
RMM:   2    -0.116243766707E+04   -0.26903E-04   -0.31093E-04  1706   0.275E-02    0.204E-02
RMM:   3    -0.116243767181E+04   -0.47392E-05   -0.69502E-05  1670   0.118E-02    0.175E-02
RMM:   4    -0.116243767036E+04    0.14506E-05   -0.18119E-05  1658   0.590E-03    0.102E-02
RMM:   5    -0.116243767015E+04    0.20426E-06   -0.57466E-06  1489   0.327E-03
  13 F= -.11624377E+04 E0= -.11624377E+04  d E =-.243373E-02  mag=     3.0000
       N       E                     dE             d eps       ncg     rms          rms(c)
DAV:   1    -0.116243774713E+04   -0.76769E-04   -0.68579E-01  1536   0.139E+00    0.173E-01
RMM:   2    -0.116243900436E+04   -0.12572E-02   -0.15266E-02  1679   0.200E-01    0.151E-01
RMM:   3    -0.116243918686E+04   -0.18250E-03   -0.35589E-03  1675   0.867E-02    0.130E-01
RMM:   4    -0.116243903538E+04    0.15148E-03   -0.10931E-03  1637   0.466E-02    0.720E-02
RMM:   5    -0.116243904331E+04   -0.79268E-05   -0.37313E-04  1626   0.263E-02    0.457E-02
RMM:   6    -0.116243905245E+04   -0.91437E-05   -0.85837E-05  1617   0.133E-02    0.250E-02
RMM:   7    -0.116243905724E+04   -0.47932E-05   -0.33551E-05  1606   0.752E-03    0.166E-02
RMM:   8    -0.116243905636E+04    0.88062E-06   -0.12941E-05  1517   0.463E-03    0.100E-02
RMM:   9    -0.116243905722E+04   -0.85267E-06   -0.74003E-06  1490   0.340E-03
  14 F= -.11624391E+04 E0= -.11624391E+04  d E =-.138706E-02  mag=     3.0000
