       N       E                     dE             d eps       ncg     rms          rms(c)
DAV:   1     0.521687335273E+04    0.52169E+04   -0.17641E+05  1756   0.994E+02
DAV:   2     0.187038439377E+03   -0.50298E+04   -0.45668E+04  2328   0.243E+02
DAV:   3    -0.114957625019E+04   -0.13366E+04   -0.13184E+04  2032   0.142E+02
DAV:   4    -0.125118242394E+04   -0.10161E+03   -0.10093E+03  2304   0.565E+01
DAV:   5    -0.125268730707E+04   -0.15049E+01   -0.14851E+01  1944   0.548E+00    0.715E+01
RMM:   6    -0.123565354239E+04    0.17034E+02   -0.95777E+00  1823   0.452E+00    0.568E+01
RMM:   7    -0.121325097403E+04    0.22403E+02   -0.90633E+01  1667   0.120E+01    0.423E+01
RMM:   8    -0.120774308846E+04    0.55079E+01   -0.10027E+01  1908   0.581E+00    0.391E+01
RMM:   9    -0.120437072529E+04    0.33724E+01   -0.17118E+00  1830   0.195E+00    0.384E+01
RMM:  10    -0.118609844255E+04    0.18272E+02   -0.90192E+00  1641   0.350E+00    0.250E+01
RMM:  11    -0.118480066908E+04    0.12978E+01   -0.10092E+01  1758   0.419E+00    0.184E+01
RMM:  12    -0.118575309011E+04   -0.95242E+00   -0.12445E+01  1908   0.481E+00    0.177E+01
RMM:  13    -0.118650892047E+04   -0.75583E+00   -0.10583E+00  1804   0.178E+00    0.170E+01
RMM:  14    -0.118857056457E+04   -0.20616E+01   -0.49523E-01  1806   0.892E-01    0.245E+01
RMM:  15    -0.118453851316E+04    0.40321E+01   -0.76178E-01  1844   0.722E-01    0.137E+01
RMM:  16    -0.118411325603E+04    0.42526E+00   -0.73250E-01  1795   0.672E-01    0.744E+00
RMM:  17    -0.118449732197E+04   -0.38407E+00   -0.33398E-01  1731   0.421E-01    0.696E+00
RMM:  18    -0.118541725942E+04   -0.91994E+00   -0.10605E+00  1863   0.751E-01    0.793E+00
RMM:  19    -0.118620575061E+04   -0.78849E+00   -0.48962E-01  2024   0.806E-01    0.829E+00
RMM:  20    -0.118618300865E+04    0.22742E-01   -0.12502E-01  1758   0.442E-01    0.725E+00
RMM:  21    -0.118593545881E+04    0.24755E+00   -0.10837E-01  1661   0.359E-01    0.661E+00
RMM:  22    -0.118553125958E+04    0.40420E+00   -0.68921E-02  1316   0.230E-01    0.607E+00
RMM:  23    -0.118526015570E+04    0.27110E+00   -0.33751E-02  1150   0.143E-01    0.568E+00
RMM:  24    -0.118493642252E+04    0.32373E+00   -0.22309E-02  1095   0.125E-01    0.550E+00
RMM:  25    -0.118478599916E+04    0.15042E+00   -0.85315E-03  1024   0.103E-01    0.538E+00
RMM:  26    -0.118478377526E+04    0.22239E-02   -0.14029E-03   975   0.693E-02    0.538E+00
RMM:  27    -0.118490530279E+04   -0.12153E+00   -0.14101E-03   976   0.517E-02    0.541E+00
RMM:  28    -0.118459263971E+04    0.31266E+00   -0.17587E-02  1021   0.647E-02    0.515E+00
RMM:  29    -0.118400995606E+04    0.58268E+00   -0.79772E-02  1214   0.129E-01    0.466E+00
RMM:  30    -0.118370545322E+04    0.30450E+00   -0.32741E-02  1106   0.142E-01    0.430E+00
RMM:  31    -0.118367256097E+04    0.32892E-01   -0.23880E-03   998   0.762E-02    0.395E+00
RMM:  32    -0.118369037050E+04   -0.17810E-01   -0.49950E-04   939   0.602E-02    0.420E+00
RMM:  33    -0.118368739950E+04    0.29710E-02   -0.19684E-04   916   0.345E-02    0.418E+00
RMM:  34    -0.118370183345E+04   -0.14434E-01   -0.10496E-04   819   0.294E-02    0.429E+00
RMM:  35    -0.118361642411E+04    0.85409E-01   -0.33780E-03   982   0.390E-02    0.467E+00
RMM:  36    -0.118367414716E+04   -0.57723E-01   -0.36424E-03   986   0.642E-02    0.409E+00
RMM:  37    -0.118364934153E+04    0.24806E-01   -0.35900E-03   983   0.600E-02    0.787E+00
RMM:  38    -0.118370600798E+04   -0.56666E-01   -0.34996E-03   980   0.700E-02    0.130E+01
RMM:  39    -0.118380400054E+04   -0.97993E-01   -0.35947E-03   994   0.686E-02    0.141E+01
RMM:  40    -0.118387026750E+04   -0.66267E-01   -0.14221E-03   968   0.658E-02    0.143E+01
RMM:  41    -0.118371179010E+04    0.15848E+00   -0.15061E-03   926   0.328E-02    0.140E+01
RMM:  42    -0.118367175474E+04    0.40035E-01   -0.40781E-04   730   0.224E-02    0.137E+01
RMM:  43    -0.118362686325E+04    0.44891E-01   -0.28979E-04   617   0.179E-02    0.129E+01
RMM:  44    -0.118367351123E+04   -0.46648E-01   -0.11518E-04   579   0.162E-02    0.136E+01
RMM:  45    -0.118363102359E+04    0.42488E-01   -0.78426E-05   482   0.115E-02    0.129E+01
RMM:  46    -0.118360748354E+04    0.23540E-01   -0.99927E-05   588   0.147E-02    0.118E+01
RMM:  47    -0.118360178376E+04    0.56998E-02   -0.33790E-04   808   0.237E-02    0.999E+00
RMM:  48    -0.118372102444E+04   -0.11924E+00   -0.18015E-03   972   0.436E-02    0.127E+01
RMM:  49    -0.118390643655E+04   -0.18541E+00   -0.33734E-03   980   0.565E-02    0.141E+01
RMM:  50    -0.118398784881E+04   -0.81412E-01   -0.10472E-03   959   0.525E-02    0.141E+01
RMM:  51    -0.118522555099E+04   -0.12377E+01   -0.19928E-02  1153   0.876E-02    0.211E+01
RMM:  52    -0.118406671262E+04    0.11588E+01   -0.25518E-02  1124   0.162E-01    0.142E+01
RMM:  53    -0.118394477552E+04    0.12194E+00   -0.91651E-03   990   0.114E-01    0.142E+01
RMM:  54    -0.118392120969E+04    0.23566E-01   -0.18075E-03   965   0.675E-02    0.143E+01
RMM:  55    -0.118402494813E+04   -0.10374E+00   -0.33446E-03   974   0.687E-02    0.144E+01
RMM:  56    -0.118399668772E+04    0.28260E-01   -0.44065E-03   970   0.860E-02    0.148E+01
RMM:  57    -0.118378419683E+04    0.21249E+00   -0.98515E-04   945   0.622E-02    0.149E+01
RMM:  58    -0.118362288321E+04    0.16131E+00   -0.77085E-04   936   0.442E-02    0.142E+01
RMM:  59    -0.118372960424E+04   -0.10672E+00   -0.10828E-03   921   0.366E-02    0.136E+01
RMM:  60    -0.118357258064E+04    0.15702E+00   -0.11708E-03   899   0.361E-02    0.105E+01
RMM:  61    -0.118377088214E+04   -0.19830E+00   -0.62372E-03   952   0.511E-02    0.116E+01
RMM:  62    -0.118364246258E+04    0.12842E+00   -0.35925E-03   940   0.663E-02    0.116E+01
RMM:  63    -0.118357881176E+04    0.63651E-01   -0.53154E-04   770   0.295E-02    0.113E+01
RMM:  64    -0.118347044442E+04    0.10837E+00   -0.65571E-04   744   0.307E-02    0.986E+00
RMM:  65    -0.118348091593E+04   -0.10472E-01   -0.38500E-04   623   0.241E-02    0.926E+00
RMM:  66    -0.118358156466E+04   -0.10065E+00   -0.47380E-04   812   0.247E-02    0.113E+01
RMM:  67    -0.118357414998E+04    0.74147E-02   -0.23605E-04   758   0.248E-02    0.113E+01
RMM:  68    -0.118340653339E+04    0.16762E+00   -0.11968E-02   973   0.422E-02    0.744E+00
RMM:  69    -0.118357923886E+04   -0.17271E+00   -0.66080E-03   927   0.676E-02    0.965E+00
RMM:  70    -0.118372809097E+04   -0.14885E+00   -0.34089E-03   908   0.514E-02    0.139E+01
RMM:  71    -0.118349398681E+04    0.23410E+00   -0.25415E-02   990   0.787E-02    0.339E+00
RMM:  72    -0.118364641396E+04   -0.15243E+00   -0.11295E-02   998   0.105E-01    0.437E+00
RMM:  73    -0.118377999338E+04   -0.13358E+00   -0.64987E-03   966   0.864E-02    0.457E+00
RMM:  74    -0.118388357979E+04   -0.10359E+00   -0.59897E-03   961   0.714E-02    0.464E+00
RMM:  75    -0.118398491732E+04   -0.10134E+00   -0.51091E-03   941   0.533E-02    0.472E+00
RMM:  76    -0.118404177801E+04   -0.56861E-01   -0.17209E-03   945   0.669E-02    0.477E+00
RMM:  77    -0.118414114767E+04   -0.99370E-01   -0.36251E-03   928   0.432E-02    0.485E+00
RMM:  78    -0.118419291195E+04   -0.51764E-01   -0.11898E-03   912   0.462E-02    0.487E+00
RMM:  79    -0.118427545572E+04   -0.82544E-01   -0.25638E-03   929   0.433E-02    0.494E+00
RMM:  80    -0.118425099123E+04    0.24464E-01   -0.27836E-04   868   0.441E-02    0.493E+00
RMM:  81    -0.118431579522E+04   -0.64804E-01   -0.12156E-03   706   0.240E-02    0.495E+00
RMM:  82    -0.118431368666E+04    0.21086E-02   -0.74377E-04   857   0.358E-02    0.494E+00
RMM:  83    -0.118426841371E+04    0.45273E-01   -0.51465E-04   814   0.253E-02    0.489E+00
RMM:  84    -0.118423960128E+04    0.28812E-01   -0.47198E-04   706   0.249E-02    0.486E+00
RMM:  85    -0.118414531259E+04    0.94289E-01   -0.27795E-03   903   0.291E-02    0.477E+00
RMM:  86    -0.118414041601E+04    0.48966E-02   -0.21921E-04   796   0.330E-02    0.477E+00
RMM:  87    -0.118411477677E+04    0.25639E-01   -0.30143E-04   586   0.156E-02    0.475E+00
RMM:  88    -0.118404952151E+04    0.65255E-01   -0.13099E-03   694   0.244E-02    0.469E+00
RMM:  89    -0.118398506019E+04    0.64461E-01   -0.20490E-03   890   0.343E-02    0.464E+00
RMM:  90    -0.118395738545E+04    0.27675E-01   -0.50787E-04   800   0.349E-02    0.461E+00
RMM:  91    -0.118398368923E+04   -0.26304E-01   -0.21918E-04   712   0.237E-02    0.463E+00
RMM:  92    -0.118391891639E+04    0.64773E-01   -0.10473E-03   878   0.279E-02    0.458E+00
RMM:  93    -0.118391414197E+04    0.47744E-02   -0.32168E-04   835   0.401E-02    0.457E+00
RMM:  94    -0.118389426783E+04    0.19874E-01   -0.29930E-04   641   0.167E-02    0.455E+00
RMM:  95    -0.118389294495E+04    0.13229E-02   -0.70996E-05   607   0.219E-02    0.456E+00
RMM:  96    -0.119355853368E+04   -0.96656E+01   -0.62380E-01  1871   0.357E-01    0.222E+01
RMM:  97    -0.118408540170E+04    0.94731E+01   -0.15784E+00  2038   0.526E-01    0.478E+00
RMM:  98    -0.118353200668E+04    0.55340E+00   -0.76620E-02  1229   0.240E-01    0.316E+00
RMM:  99    -0.118352100095E+04    0.11006E-01   -0.74373E-03   990   0.990E-02    0.575E+00
RMM: 100    -0.118346716491E+04    0.53836E-01   -0.18803E-03   913   0.489E-02
   1 F= -.11905960E+04 E0= -.11905802E+04  d E =-.119060E+04  mag=    -0.0679
       N       E                     dE             d eps       ncg     rms          rms(c)
DAV:   1    -0.118345244218E+04    0.68559E-01   -0.42902E-01  1733   0.977E-01    0.488E+00
RMM:   2    -0.118370929478E+04   -0.25685E+00   -0.46905E-02  1541   0.309E-01    0.747E+00
RMM:   3    -0.118409400702E+04   -0.38471E+00   -0.10153E-01  1491   0.305E-01    0.144E+01
RMM:   4    -0.118382631045E+04    0.26770E+00   -0.77972E-02  1365   0.289E-01    0.900E+00
RMM:   5    -0.118386520340E+04   -0.38893E-01   -0.14493E-02  1081   0.185E-01    0.822E+00
RMM:   6    -0.118383638045E+04    0.28823E-01   -0.26036E-03   968   0.829E-02    0.859E+00
RMM:   7    -0.118353211712E+04    0.30426E+00   -0.60556E-02  1506   0.212E-01    0.884E+00
RMM:   8    -0.118367854903E+04   -0.14643E+00   -0.17746E-01  1813   0.380E-01    0.543E+00
RMM:   9    -0.118373456779E+04   -0.56019E-01   -0.19179E-02  1161   0.195E-01    0.405E+00
RMM:  10    -0.118367611350E+04    0.58454E-01   -0.15074E-02  1035   0.999E-02    0.259E+00
RMM:  11    -0.118367271721E+04    0.33963E-02   -0.12060E-03   959   0.640E-02    0.265E+00
RMM:  12    -0.118363423454E+04    0.38483E-01   -0.56696E-03   977   0.616E-02    0.400E+00
RMM:  13    -0.118358823583E+04    0.45999E-01   -0.17757E-02   998   0.926E-02    0.552E+00
RMM:  14    -0.118357563175E+04    0.12604E-01   -0.19850E-03   942   0.659E-02    0.535E+00
RMM:  15    -0.118357860061E+04   -0.29689E-02   -0.98841E-04   875   0.414E-02    0.559E+00
RMM:  16    -0.118353748485E+04    0.41116E-01   -0.14458E-02   908   0.517E-02    0.450E+00
RMM:  17    -0.118348967225E+04    0.47813E-01   -0.10672E-02  1020   0.983E-02    0.429E+00
RMM:  18    -0.118354247148E+04   -0.52799E-01   -0.45708E-03   945   0.845E-02    0.721E+00
RMM:  19    -0.118358133582E+04   -0.38864E-01   -0.98053E-03   994   0.884E-02    0.445E+00
RMM:  20    -0.118363115404E+04   -0.49818E-01   -0.53020E-03   995   0.922E-02    0.433E+00
RMM:  21    -0.118378946841E+04   -0.15831E+00   -0.27487E-02  1316   0.174E-01    0.686E+00
RMM:  22    -0.118377464749E+04    0.14821E-01   -0.17934E-02  1133   0.181E-01    0.577E+00
RMM:  23    -0.118378061702E+04   -0.59695E-02   -0.13984E-03   963   0.787E-02    0.593E+00
RMM:  24    -0.118390697005E+04   -0.12635E+00   -0.71947E-03  1024   0.860E-02    0.652E+00
RMM:  25    -0.118393900521E+04   -0.32035E-01   -0.11983E-02  1154   0.131E-01    0.843E+00
RMM:  26    -0.118391755791E+04    0.21447E-01   -0.20078E-03   979   0.106E-01    0.859E+00
RMM:  27    -0.118391194835E+04    0.56096E-02   -0.53942E-04   923   0.479E-02    0.840E+00
RMM:  28    -0.118381713490E+04    0.94813E-01   -0.67276E-03   939   0.679E-02    0.925E+00
RMM:  29    -0.118389414094E+04   -0.77006E-01   -0.41304E-03   865   0.549E-02    0.892E+00
RMM:  30    -0.118393481849E+04   -0.40678E-01   -0.30319E-03   863   0.390E-02    0.857E+00
RMM:  31    -0.118388854738E+04    0.46271E-01   -0.29363E-03   917   0.413E-02    0.911E+00
RMM:  32    -0.118369524162E+04    0.19331E+00   -0.20978E-02   971   0.686E-02    0.684E+00
RMM:  33    -0.118373186154E+04   -0.36620E-01   -0.19297E-02  1032   0.117E-01    0.546E+00
RMM:  34    -0.118371417023E+04    0.17691E-01   -0.22045E-03   956   0.823E-02    0.376E+00
RMM:  35    -0.118372707284E+04   -0.12903E-01   -0.12031E-03   872   0.440E-02    0.337E+00
RMM:  36    -0.118374943060E+04   -0.22358E-01   -0.36572E-03   894   0.635E-02    0.478E+00
RMM:  37    -0.118370912912E+04    0.40301E-01   -0.26627E-03   857   0.539E-02    0.243E+00
RMM:  38    -0.118372792062E+04   -0.18792E-01   -0.14449E-03   814   0.395E-02    0.480E+00
RMM:  39    -0.118369028980E+04    0.37631E-01   -0.12757E-03   799   0.410E-02    0.330E+00
RMM:  40    -0.118369739647E+04   -0.71067E-02   -0.35770E-04   726   0.287E-02    0.362E+00
RMM:  41    -0.118368224344E+04    0.15153E-01   -0.37632E-04   792   0.240E-02    0.341E+00
RMM:  42    -0.118363352280E+04    0.48721E-01   -0.50124E-03   980   0.481E-02    0.268E+00
RMM:  43    -0.118364230240E+04   -0.87796E-02   -0.12602E-03   919   0.616E-02    0.297E+00
RMM:  44    -0.118368295603E+04   -0.40654E-01   -0.74662E-03  1037   0.852E-02    0.450E+00
RMM:  45    -0.118367963978E+04    0.33162E-02   -0.30486E-03   979   0.876E-02    0.392E+00
RMM:  46    -0.118369815395E+04   -0.18514E-01   -0.14931E-02  1228   0.135E-01    0.553E+00
RMM:  47    -0.118363292409E+04    0.65230E-01   -0.62137E-03  1004   0.127E-01    0.148E+00
RMM:  48    -0.118368223367E+04   -0.49310E-01   -0.49066E-03  1008   0.888E-02    0.352E+00
RMM:  49    -0.118367281189E+04    0.94218E-02   -0.18111E-03   968   0.840E-02    0.483E+00
RMM:  50    -0.118365904693E+04    0.13765E-01   -0.69596E-04   909   0.508E-02    0.503E+00
RMM:  51    -0.118365538389E+04    0.36630E-02   -0.31096E-04   891   0.463E-02    0.539E+00
RMM:  52    -0.118366566616E+04   -0.10282E-01   -0.66658E-03   925   0.591E-02    0.423E+00
RMM:  53    -0.118366401398E+04    0.16522E-02   -0.17710E-03   860   0.601E-02    0.344E+00
RMM:  54    -0.118368186324E+04   -0.17849E-01   -0.93706E-04   656   0.308E-02    0.337E+00
RMM:  55    -0.118367651108E+04    0.53522E-02   -0.37788E-04   636   0.275E-02    0.324E+00
RMM:  56    -0.118368935443E+04   -0.12843E-01   -0.58826E-04   544   0.211E-02    0.337E+00
RMM:  57    -0.118369956224E+04   -0.10208E-01   -0.62078E-04   655   0.243E-02    0.416E+00
RMM:  58    -0.118367889572E+04    0.20667E-01   -0.35969E-04   674   0.261E-02    0.363E+00
RMM:  59    -0.118368260140E+04   -0.37057E-02   -0.85275E-05   471   0.160E-02    0.360E+00
RMM:  60    -0.118368158900E+04    0.10124E-02   -0.94242E-05   477   0.139E-02    0.336E+00
RMM:  61    -0.118368136597E+04    0.22303E-03   -0.64012E-04   798   0.264E-02
   2 F= -.11908106E+04 E0= -.11907966E+04  d E =-.214553E+00  mag=    -0.4366
       N       E                     dE             d eps       ncg     rms          rms(c)
DAV:   1    -0.118370789012E+04   -0.26301E-01   -0.21257E-03  1242   0.562E-02    0.403E+00
RMM:   2    -0.118405187278E+04   -0.34398E+00   -0.18273E-01  1508   0.220E-01    0.102E+01
RMM:   3    -0.118364821002E+04    0.40366E+00   -0.76119E-02  1193   0.234E-01    0.664E+00
RMM:   4    -0.118370907885E+04   -0.60869E-01   -0.89224E-03   963   0.109E-01    0.667E+00
RMM:   5    -0.118369541926E+04    0.13660E-01   -0.13759E-03   874   0.543E-02    0.667E+00
RMM:   6    -0.118369166453E+04    0.37547E-02   -0.30121E-04   825   0.358E-02    0.667E+00
RMM:   7    -0.118368127345E+04    0.10391E-01   -0.39771E-04   712   0.271E-02    0.642E+00
RMM:   8    -0.118367307346E+04    0.82000E-02   -0.23015E-03   793   0.320E-02    0.473E+00
RMM:   9    -0.118369506154E+04   -0.21988E-01   -0.17946E-03   868   0.479E-02    0.567E+00
RMM:  10    -0.118365698872E+04    0.38073E-01   -0.26981E-03  1020   0.655E-02    0.384E+00
RMM:  11    -0.118367288011E+04   -0.15891E-01   -0.12415E-02  1258   0.129E-01    0.306E+00
RMM:  12    -0.118366770411E+04    0.51760E-02   -0.55548E-03  1017   0.113E-01    0.361E+00
RMM:  13    -0.118366512943E+04    0.25747E-02   -0.27730E-03  1015   0.992E-02    0.370E+00
RMM:  14    -0.118366177179E+04    0.33576E-02   -0.14327E-03   983   0.931E-02    0.407E+00
RMM:  15    -0.118365050572E+04    0.11266E-01   -0.64375E-04   931   0.575E-02    0.288E+00
RMM:  16    -0.118365722714E+04   -0.67214E-02   -0.27733E-03   951   0.578E-02    0.171E+00
RMM:  17    -0.118366029086E+04   -0.30637E-02   -0.15632E-03   949   0.663E-02    0.463E-01
RMM:  18    -0.118367377264E+04   -0.13482E-01   -0.18469E-03   976   0.729E-02    0.930E-01
RMM:  19    -0.118367235061E+04    0.14220E-02   -0.53013E-04   930   0.734E-02    0.919E-01
RMM:  20    -0.118367195555E+04    0.39506E-03   -0.32238E-04   865   0.376E-02
   3 F= -.11908012E+04 E0= -.11907822E+04  d E =-.205140E+00  mag=    -0.7249
       N       E                     dE             d eps       ncg     rms          rms(c)
DAV:   1    -0.118367280766E+04   -0.45705E-03   -0.57068E-02  1672   0.357E-01    0.134E+00
RMM:   2    -0.118374014835E+04   -0.67341E-01   -0.15457E-02  1104   0.113E-01    0.550E+00
RMM:   3    -0.118370005383E+04    0.40095E-01   -0.24063E-03   937   0.101E-01    0.619E+00
RMM:   4    -0.118363477254E+04    0.65281E-01   -0.21452E-03   896   0.517E-02    0.274E+00
RMM:   5    -0.118366926874E+04   -0.34496E-01   -0.13641E-02  1007   0.748E-02    0.382E+00
RMM:   6    -0.118366577582E+04    0.34929E-02   -0.20200E-03   906   0.832E-02    0.292E+00
RMM:   7    -0.118365694728E+04    0.88285E-02   -0.31088E-04   845   0.315E-02    0.194E+00
RMM:   8    -0.118366559342E+04   -0.86461E-02   -0.20731E-04   862   0.342E-02    0.197E+00
RMM:   9    -0.118366327963E+04    0.23138E-02   -0.44358E-04   872   0.267E-02    0.353E-01
RMM:  10    -0.118367317141E+04   -0.98918E-02   -0.34058E-04   857   0.381E-02    0.658E-01
RMM:  11    -0.118367295626E+04    0.21515E-03   -0.20044E-04   468   0.144E-02
   4 F= -.11908020E+04 E0= -.11907829E+04  d E =-.206014E+00  mag=    -0.6919
       N       E                     dE             d eps       ncg     rms          rms(c)
DAV:   1    -0.118367507926E+04   -0.19078E-02   -0.25840E-03  1392   0.776E-02    0.332E-02
RMM:   2    -0.118367533774E+04   -0.25848E-03   -0.90387E-05   702   0.207E-02
   5 F= -.11908044E+04 E0= -.11907851E+04  d E =-.208369E+00  mag=    -0.6921
       N       E                     dE             d eps       ncg     rms          rms(c)
DAV:   1    -0.118367591534E+04   -0.83608E-03   -0.35220E-02  1581   0.276E-01    0.515E-01
RMM:   2    -0.118369675781E+04   -0.20842E-01   -0.40754E-03   940   0.803E-02    0.274E+00
RMM:   3    -0.118366378036E+04    0.32977E-01   -0.17959E-03   899   0.748E-02    0.825E-01
RMM:   4    -0.118367126880E+04   -0.74884E-02   -0.38801E-04   798   0.352E-02    0.889E-01
RMM:   5    -0.118367175585E+04   -0.48705E-03   -0.38902E-04   759   0.308E-02
   6 F= -.11908007E+04 E0= -.11907815E+04  d E =-.204689E+00  mag=    -0.6953
       N       E                     dE             d eps       ncg     rms          rms(c)
DAV:   1    -0.118367799627E+04   -0.67275E-02   -0.95606E-03  1456   0.145E-01    0.157E+00
RMM:   2    -0.118376143264E+04   -0.83436E-01   -0.31882E-02  1243   0.120E-01    0.307E+00
RMM:   3    -0.118368426838E+04    0.77164E-01   -0.84640E-03   983   0.125E-01    0.273E+00
RMM:   4    -0.118366367268E+04    0.20596E-01   -0.89201E-03   961   0.843E-02    0.191E+00
RMM:   5    -0.118368774989E+04   -0.24077E-01   -0.20125E-03   900   0.772E-02    0.378E+00
RMM:   6    -0.118365422621E+04    0.33524E-01   -0.10480E-03   839   0.539E-02    0.231E+00
RMM:   7    -0.118366392823E+04   -0.97020E-02   -0.21900E-04   724   0.295E-02    0.254E+00
RMM:   8    -0.118366079868E+04    0.31295E-02   -0.96936E-05   645   0.220E-02    0.200E+00
RMM:   9    -0.118366198945E+04   -0.11908E-02   -0.38755E-04   705   0.230E-02    0.165E-01
RMM:  10    -0.118367490629E+04   -0.12917E-01   -0.53639E-04   789   0.328E-02    0.224E-01
RMM:  11    -0.118367582008E+04   -0.91379E-03   -0.14632E-04   783   0.239E-02
   7 F= -.11908047E+04 E0= -.11907856E+04  d E =-.208704E+00  mag=    -0.6946
       N       E                     dE             d eps       ncg     rms          rms(c)
DAV:   1    -0.118367510814E+04   -0.20184E-03   -0.23567E-03  1312   0.745E-02    0.371E-01
RMM:   2    -0.118369106460E+04   -0.15956E-01   -0.15150E-03   850   0.384E-02    0.377E+00
RMM:   3    -0.118365378111E+04    0.37283E-01   -0.12064E-03   835   0.482E-02    0.109E+00
RMM:   4    -0.118367221547E+04   -0.18434E-01   -0.65742E-04   675   0.294E-02    0.195E-01
RMM:   5    -0.118367510692E+04   -0.28914E-02   -0.13808E-04   539   0.187E-02    0.858E-02
RMM:   6    -0.118367567673E+04   -0.56981E-03   -0.58571E-05   461   0.136E-02
   8 F= -.11908046E+04 E0= -.11907853E+04  d E =-.208585E+00  mag=    -0.6922
       N       E                     dE             d eps       ncg     rms          rms(c)
DAV:   1    -0.118367646651E+04   -0.13596E-02   -0.21883E-02  1552   0.213E-01    0.407E-01
RMM:   2    -0.118369015300E+04   -0.13686E-01   -0.26944E-03   910   0.603E-02    0.263E+00
RMM:   3    -0.118366588422E+04    0.24269E-01   -0.12561E-03   884   0.639E-02    0.998E-01
RMM:   4    -0.118367293750E+04   -0.70533E-02   -0.38074E-04   825   0.290E-02    0.356E-01
RMM:   5    -0.118367546712E+04   -0.25296E-02   -0.18582E-04   810   0.259E-02    0.142E-01
RMM:   6    -0.118367613925E+04   -0.67213E-03   -0.51873E-05   475   0.152E-02
   9 F= -.11908051E+04 E0= -.11907858E+04  d E =-.462411E-03  mag=    -0.6922
       N       E                     dE             d eps       ncg     rms          rms(c)
DAV:   1    -0.118367700743E+04   -0.15403E-02   -0.63120E-02  1544   0.363E-01    0.577E-01
RMM:   2    -0.118369919732E+04   -0.22190E-01   -0.52660E-03   947   0.977E-02    0.279E+00
RMM:   3    -0.118366619891E+04    0.32998E-01   -0.21905E-03   909   0.868E-02    0.125E+00
RMM:   4    -0.118367315116E+04   -0.69523E-02   -0.46934E-04   869   0.425E-02    0.797E-01
RMM:   5    -0.118367467681E+04   -0.15257E-02   -0.22198E-04   852   0.365E-02    0.919E-01
RMM:   6    -0.118367425733E+04    0.41948E-03   -0.78680E-05   711   0.206E-02
  10 F= -.11908032E+04 E0= -.11907849E+04  d E =0.141696E-02  mag=    -0.6918
       N       E                     dE             d eps       ncg     rms          rms(c)
DAV:   1    -0.118367123853E+04    0.34383E-02   -0.21728E-02  1560   0.217E-01    0.557E-01
RMM:   2    -0.118370521944E+04   -0.33981E-01   -0.44936E-03   928   0.659E-02    0.478E+00
RMM:   3    -0.118364632356E+04    0.58896E-01   -0.25218E-03   909   0.823E-02    0.140E+00
RMM:   4    -0.118367110004E+04   -0.24776E-01   -0.10050E-03   860   0.387E-02    0.242E-01
RMM:   5    -0.118367556534E+04   -0.44653E-02   -0.21312E-04   832   0.298E-02    0.147E-01
RMM:   6    -0.118367657369E+04   -0.10083E-02   -0.98198E-05   834   0.218E-02    0.205E-01
RMM:   7    -0.118367650401E+04    0.69675E-04   -0.43578E-05   826   0.228E-02
  11 F= -.11908054E+04 E0= -.11907862E+04  d E =-.827812E-03  mag=    -0.6908
       N       E                     dE             d eps       ncg     rms          rms(c)
DAV:   1    -0.118367647712E+04    0.96569E-04   -0.95254E-03  1472   0.143E-01    0.193E-01
RMM:   2    -0.118367865887E+04   -0.21817E-02   -0.48023E-04   871   0.368E-02    0.151E+00
RMM:   3    -0.118367366843E+04    0.49904E-02   -0.26912E-04   872   0.368E-02    0.130E+00
RMM:   4    -0.118367197402E+04    0.16944E-02   -0.15795E-04   644   0.191E-02    0.124E-01
RMM:   5    -0.118367620996E+04   -0.42359E-02   -0.15644E-04   592   0.190E-02    0.879E-02
RMM:   6    -0.118367654913E+04   -0.33917E-03   -0.35661E-05   385   0.130E-02
  12 F= -.11908055E+04 E0= -.11907863E+04  d E =-.874104E-03  mag=    -0.6908
       N       E                     dE             d eps       ncg     rms          rms(c)
DAV:   1    -0.118367699897E+04   -0.78900E-03   -0.18402E-02  1568   0.251E-01    0.470E-01
RMM:   2    -0.118369874429E+04   -0.21745E-01   -0.33145E-03   948   0.680E-02    0.428E+00
RMM:   3    -0.118365018529E+04    0.48559E-01   -0.18117E-03   907   0.710E-02    0.127E+00
RMM:   4    -0.118366857834E+04   -0.18393E-01   -0.63852E-04   862   0.371E-02    0.151E-01
RMM:   5    -0.118367625965E+04   -0.76813E-02   -0.44256E-04   830   0.319E-02    0.120E-01
RMM:   6    -0.118367681281E+04   -0.55316E-03   -0.80957E-05   647   0.187E-02
  13 F= -.11908057E+04 E0= -.11907864E+04  d E =-.196966E-03  mag=    -0.6927
       N       E                     dE             d eps       ncg     rms          rms(c)
DAV:   1    -0.118367689700E+04   -0.63735E-03   -0.18108E-03  1160   0.820E-02    0.143E-01
RMM:   2    -0.118367898474E+04   -0.20877E-02   -0.33942E-04   821   0.416E-02    0.147E+00
RMM:   3    -0.118367284619E+04    0.61385E-02   -0.29453E-04   833   0.278E-02    0.582E-01
RMM:   4    -0.118367539155E+04   -0.25454E-02   -0.17142E-04   664   0.221E-02    0.564E-02
RMM:   5    -0.118367682870E+04   -0.14371E-02   -0.80941E-05   405   0.136E-02    0.415E-02
RMM:   6    -0.118367696509E+04   -0.13639E-03   -0.12231E-05   344   0.114E-02
  14 F= -.11908058E+04 E0= -.11907866E+04  d E =-.328162E-03  mag=    -0.6917
       N       E                     dE             d eps       ncg     rms          rms(c)
DAV:   1    -0.118367726606E+04   -0.43736E-03   -0.12089E-02  1506   0.198E-01    0.655E-02
RMM:   2    -0.118367741909E+04   -0.15304E-03   -0.80710E-04   902   0.475E-02
  15 F= -.11908062E+04 E0= -.11907871E+04  d E =-.402904E-03  mag=    -0.6932
       N       E                     dE             d eps       ncg     rms          rms(c)
DAV:   1    -0.118367708130E+04    0.18476E-03   -0.10676E-02  1530   0.189E-01    0.298E-01
RMM:   2    -0.118368100998E+04   -0.39287E-02   -0.12403E-03   919   0.512E-02    0.207E+00
RMM:   3    -0.118367574153E+04    0.52684E-02   -0.46077E-04   878   0.471E-02    0.204E+00
RMM:   4    -0.118366978749E+04    0.59540E-02   -0.16672E-04   693   0.249E-02    0.738E-01
RMM:   5    -0.118367527474E+04   -0.54872E-02   -0.26399E-04   686   0.242E-02    0.101E-01
RMM:   6    -0.118367737716E+04   -0.21024E-02   -0.16127E-04   611   0.208E-02    0.809E-02
RMM:   7    -0.118367747938E+04   -0.10221E-03   -0.16565E-04   849   0.228E-02
  16 F= -.11908062E+04 E0= -.11907870E+04  d E =-.416238E-03  mag=    -0.6918
       N       E                     dE             d eps       ncg     rms          rms(c)
DAV:   1    -0.118367762494E+04   -0.24778E-03   -0.92456E-03  1418   0.130E-01    0.338E-01
RMM:   2    -0.118368812456E+04   -0.10500E-01   -0.17449E-03   896   0.441E-02    0.245E+00
RMM:   3    -0.118366685966E+04    0.21265E-01   -0.92408E-04   883   0.486E-02    0.348E-01
RMM:   4    -0.118367639839E+04   -0.95387E-02   -0.39676E-04   753   0.275E-02    0.196E-01
RMM:   5    -0.118367721462E+04   -0.81622E-03   -0.71310E-05   572   0.168E-02
  17 F= -.11908060E+04 E0= -.11907867E+04  d E =0.265915E-03  mag=    -0.6909
       N       E                     dE             d eps       ncg     rms          rms(c)
DAV:   1    -0.118367781297E+04   -0.14146E-02   -0.24123E-02  1442   0.208E-01    0.382E-01
RMM:   2    -0.118369067249E+04   -0.12860E-01   -0.24023E-03   913   0.568E-02    0.256E+00
RMM:   3    -0.118366612224E+04    0.24550E-01   -0.12132E-03   890   0.590E-02    0.470E-01
RMM:   4    -0.118367458407E+04   -0.84618E-02   -0.33179E-04   801   0.264E-02    0.332E-01
RMM:   5    -0.118367667180E+04   -0.20877E-02   -0.16891E-04   733   0.230E-02    0.217E-01
RMM:   6    -0.118367767141E+04   -0.99961E-03   -0.81567E-05   498   0.163E-02
  18 F= -.11908064E+04 E0= -.11907872E+04  d E =-.189294E-03  mag=    -0.6914
       N       E                     dE             d eps       ncg     rms          rms(c)
DAV:   1    -0.118367782653E+04   -0.11547E-02   -0.43691E-03  1250   0.915E-02    0.153E-01
RMM:   2    -0.118367997325E+04   -0.21467E-02   -0.34025E-04   828   0.312E-02    0.139E+00
RMM:   3    -0.118367254679E+04    0.74265E-02   -0.33085E-04   850   0.293E-02    0.551E-01
RMM:   4    -0.118367536995E+04   -0.28232E-02   -0.12169E-04   558   0.178E-02    0.816E-02
RMM:   5    -0.118367753747E+04   -0.21675E-02   -0.12283E-04   401   0.143E-02    0.847E-02
RMM:   6    -0.118367779801E+04   -0.26054E-03   -0.30758E-05   343   0.121E-02
  19 F= -.11908066E+04 E0= -.11907873E+04  d E =-.315293E-03  mag=    -0.6921
       N       E                     dE             d eps       ncg     rms          rms(c)
DAV:   1    -0.118367798896E+04   -0.45149E-03   -0.11859E-02  1458   0.168E-01    0.146E-01
RMM:   2    -0.118367943929E+04   -0.14503E-02   -0.32598E-04   872   0.399E-02    0.126E+00
RMM:   3    -0.118367552106E+04    0.39182E-02   -0.20420E-04   870   0.339E-02    0.874E-01
RMM:   4    -0.118367572418E+04   -0.20312E-03   -0.11436E-04   718   0.202E-02
  20 F= -.11908045E+04 E0= -.11907852E+04  d E =0.203930E-02  mag=    -0.6913
       N       E                     dE             d eps       ncg     rms          rms(c)
DAV:   1    -0.118367798026E+04   -0.24592E-02   -0.38947E-02  1458   0.300E-01    0.137E-01
RMM:   2    -0.118367836021E+04   -0.37995E-03   -0.80852E-04   886   0.686E-02
  21 F= -.11908072E+04 E0= -.11907880E+04  d E =-.658047E-03  mag=    -0.6932
       N       E                     dE             d eps       ncg     rms          rms(c)
DAV:   1    -0.118367761313E+04    0.36713E-03   -0.32621E-03  1165   0.954E-02    0.275E-01
RMM:   2    -0.118368188664E+04   -0.42735E-02   -0.65119E-04   864   0.626E-02    0.200E+00
RMM:   3    -0.118367365635E+04    0.82303E-02   -0.39444E-04   864   0.360E-02    0.182E+00
RMM:   4    -0.118366825681E+04    0.53995E-02   -0.25467E-04   814   0.288E-02    0.154E-01
RMM:   5    -0.118367742099E+04   -0.91642E-02   -0.35695E-04   657   0.219E-02    0.198E-01
RMM:   6    -0.118367815625E+04   -0.73526E-03   -0.77344E-05   562   0.173E-02
  22 F= -.11908070E+04 E0= -.11907877E+04  d E =0.204217E-03  mag=    -0.6904
       N       E                     dE             d eps       ncg     rms          rms(c)
DAV:   1    -0.118367827429E+04   -0.85330E-03   -0.20573E-02  1480   0.208E-01    0.144E-01
RMM:   2    -0.118367984801E+04   -0.15737E-02   -0.57574E-04   886   0.455E-02    0.122E+00
RMM:   3    -0.118367387042E+04    0.59776E-02   -0.31029E-04   878   0.388E-02    0.686E-01
RMM:   4    -0.118367532762E+04   -0.14572E-02   -0.12045E-04   768   0.219E-02    0.899E-02
RMM:   5    -0.118367801880E+04   -0.26912E-02   -0.15204E-04   658   0.191E-02    0.946E-02
RMM:   6    -0.118367833571E+04   -0.31692E-03   -0.44876E-05   454   0.140E-02
  23 F= -.11908072E+04 E0= -.11907879E+04  d E =0.253762E-04  mag=    -0.6922
       N       E                     dE             d eps       ncg     rms          rms(c)
DAV:   1    -0.118367828487E+04   -0.26607E-03   -0.42691E-03  1256   0.958E-02    0.126E-01
RMM:   2    -0.118367875329E+04   -0.46842E-03   -0.16705E-04   839   0.315E-02
  24 F= -.11908076E+04 E0= -.11907887E+04  d E =-.391982E-03  mag=    -0.6920
       N       E                     dE             d eps       ncg     rms          rms(c)
DAV:   1    -0.118367625771E+04    0.20272E-02   -0.25787E-03  1095   0.750E-02    0.967E-01
RMM:   2    -0.118374690812E+04   -0.70650E-01   -0.97447E-03   984   0.791E-02    0.579E+00
RMM:   3    -0.118364267263E+04    0.10424E+00   -0.63614E-03   926   0.930E-02    0.281E+00
RMM:   4    -0.118366275333E+04   -0.20081E-01   -0.16277E-03   784   0.472E-02    0.610E-01
RMM:   5    -0.118367621031E+04   -0.13457E-01   -0.69253E-04   710   0.326E-02    0.399E-01
RMM:   6    -0.118367805979E+04   -0.18495E-02   -0.15334E-04   620   0.244E-02    0.552E-02
RMM:   7    -0.118367833275E+04   -0.27295E-03   -0.35726E-05   437   0.146E-02
  25 F= -.11908072E+04 E0= -.11907879E+04  d E =0.283954E-04  mag=    -0.6901
       N       E                     dE             d eps       ncg     rms          rms(c)
DAV:   1    -0.118367833247E+04   -0.27268E-03   -0.63820E-04  1104   0.369E-02    0.832E-02
RMM:   2    -0.118367875079E+04   -0.41832E-03   -0.50233E-05   637   0.202E-02
  26 F= -.11908076E+04 E0= -.11907884E+04  d E =-.389567E-03  mag=    -0.6879
       N       E                     dE             d eps       ncg     rms          rms(c)
DAV:   1    -0.118367713115E+04    0.12013E-02   -0.31390E-04   975   0.285E-02    0.629E-01
RMM:   2    -0.118369872355E+04   -0.21592E-01   -0.26773E-03   873   0.373E-02    0.402E+00
RMM:   3    -0.118368201509E+04    0.16708E-01   -0.74903E-04   834   0.483E-02    0.419E+00
RMM:   4    -0.118365638254E+04    0.25633E-01   -0.79951E-04   621   0.269E-02    0.157E+00
RMM:   5    -0.118366928570E+04   -0.12903E-01   -0.12436E-03   654   0.331E-02    0.940E-02
RMM:   6    -0.118367764805E+04   -0.83623E-02   -0.30077E-04   600   0.253E-02    0.157E-01
RMM:   7    -0.118367802052E+04   -0.37247E-03   -0.40272E-05   414   0.134E-02
  27 F= -.11908069E+04 E0= -.11907876E+04  d E =0.340752E-03  mag=    -0.6906
       N       E                     dE             d eps       ncg     rms          rms(c)
DAV:   1    -0.118367809523E+04   -0.44719E-03   -0.34526E-05  1024   0.125E-02    0.125E-01
RMM:   2    -0.118368021165E+04   -0.21164E-02   -0.20612E-04   433   0.132E-02    0.140E+00
RMM:   3    -0.118367383570E+04    0.63759E-02   -0.28960E-04   513   0.212E-02    0.744E-02
RMM:   4    -0.118367791214E+04   -0.40764E-02   -0.14830E-04   352   0.121E-02    0.122E-01
RMM:   5    -0.118367823814E+04   -0.32600E-03   -0.38804E-05   307   0.900E-03
  28 F= -.11908071E+04 E0= -.11907878E+04  d E =0.123122E-03  mag=    -0.6912
       N       E                     dE             d eps       ncg     rms          rms(c)
DAV:   1    -0.118367849022E+04   -0.57808E-03   -0.39497E-03  1288   0.101E-01    0.291E-02
RMM:   2    -0.118367852659E+04   -0.36373E-04   -0.18499E-04   800   0.318E-02
  29 F= -.11908074E+04 E0= -.11907881E+04  d E =-.270733E-03  mag=    -0.6915
       N       E                     dE             d eps       ncg     rms          rms(c)
DAV:   1    -0.118367867028E+04   -0.18006E-03   -0.29231E-02  1468   0.277E-01    0.136E-01
RMM:   2    -0.118368011693E+04   -0.14466E-02   -0.14111E-03   923   0.637E-02    0.107E+00
RMM:   3    -0.118367510244E+04    0.50145E-02   -0.37886E-04   884   0.507E-02    0.356E-01
RMM:   4    -0.118367785896E+04   -0.27565E-02   -0.17398E-04   826   0.262E-02    0.866E-02
RMM:   5    -0.118367874673E+04   -0.88777E-03   -0.63969E-05   772   0.222E-02
  30 F= -.11908075E+04 E0= -.11907883E+04  d E =-.443717E-03  mag=    -0.6908
       N       E                     dE             d eps       ncg     rms          rms(c)
DAV:   1    -0.118367915178E+04   -0.12928E-02   -0.11424E-01  1516   0.542E-01    0.268E-01
RMM:   2    -0.118368447392E+04   -0.53221E-02   -0.51280E-03  1022   0.117E-01    0.195E+00
RMM:   3    -0.118367117416E+04    0.13300E-01   -0.12276E-03   920   0.874E-02    0.141E-01
RMM:   4    -0.118367882647E+04   -0.76523E-02   -0.49623E-04   888   0.466E-02    0.259E-01
RMM:   5    -0.118367915467E+04   -0.32820E-03   -0.14569E-04   872   0.379E-02
  31 F= -.11908078E+04 E0= -.11907886E+04  d E =-.757873E-03  mag=    -0.6894
       N       E                     dE             d eps       ncg     rms          rms(c)
DAV:   1    -0.118367870811E+04    0.11836E-03   -0.46287E-01  1591   0.109E+00    0.645E-01
RMM:   2    -0.118370266042E+04   -0.23952E-01   -0.20876E-02  1485   0.234E-01    0.286E+00
RMM:   3    -0.118367074204E+04    0.31918E-01   -0.44259E-03  1034   0.137E-01    0.174E+00
RMM:   4    -0.118367415569E+04   -0.34136E-02   -0.10513E-03   945   0.889E-02    0.761E-01
RMM:   5    -0.118367976015E+04   -0.56045E-02   -0.11940E-03   934   0.574E-02    0.150E+00
RMM:   6    -0.118367604279E+04    0.37174E-02   -0.73100E-04   909   0.524E-02    0.692E-01
RMM:   7    -0.118368139431E+04   -0.53515E-02   -0.21081E-03   931   0.615E-02    0.154E+00
RMM:   8    -0.118367477095E+04    0.66234E-02   -0.80810E-04   913   0.798E-02    0.327E-01
RMM:   9    -0.118367858712E+04   -0.38162E-02   -0.29258E-04   895   0.428E-02    0.620E-01
RMM:  10    -0.118367780791E+04    0.77920E-03   -0.10390E-04   827   0.393E-02
  32 F= -.11908063E+04 E0= -.11907870E+04  d E =0.774254E-03  mag=    -0.6930
       N       E                     dE             d eps       ncg     rms          rms(c)
DAV:   1    -0.118367906796E+04   -0.48084E-03   -0.12104E-02  1492   0.160E-01    0.323E-01
RMM:   2    -0.118368943999E+04   -0.10372E-01   -0.19592E-03   921   0.477E-02    0.239E+00
RMM:   3    -0.118366932107E+04    0.20119E-01   -0.98625E-04   889   0.511E-02    0.204E-01
RMM:   4    -0.118367880783E+04   -0.94868E-02   -0.37405E-04   761   0.271E-02    0.152E-01
RMM:   5    -0.118367960473E+04   -0.79689E-03   -0.66877E-05   644   0.184E-02
  33 F= -.11908081E+04 E0= -.11907889E+04  d E =-.177001E-02  mag=    -0.6915
       N       E                     dE             d eps       ncg     rms          rms(c)
DAV:   1    -0.118367974803E+04   -0.94020E-03   -0.61405E-04  1160   0.392E-02    0.125E-01
RMM:   2    -0.118368168908E+04   -0.19411E-02   -0.20973E-04   800   0.272E-02    0.137E+00
RMM:   3    -0.118367517812E+04    0.65110E-02   -0.24451E-04   602   0.219E-02    0.254E-01
RMM:   4    -0.118367903155E+04   -0.38534E-02   -0.10067E-04   414   0.137E-02    0.661E-02
RMM:   5    -0.118367980953E+04   -0.77797E-03   -0.59138E-05   342   0.120E-02
  34 F= -.11908083E+04 E0= -.11907890E+04  d E =-.196879E-02  mag=    -0.6919
       N       E                     dE             d eps       ncg     rms          rms(c)
DAV:   1    -0.118367994054E+04   -0.90899E-03   -0.24155E-03  1130   0.742E-02    0.953E-02
RMM:   2    -0.118368085245E+04   -0.91191E-03   -0.20788E-04   798   0.307E-02
  35 F= -.11908093E+04 E0= -.11907907E+04  d E =-.299967E-02  mag=    -0.6918
       N       E                     dE             d eps       ncg     rms          rms(c)
DAV:   1    -0.118367740760E+04    0.25329E-02   -0.14487E-03  1055   0.616E-02    0.892E-02
RMM:   2    -0.118367999954E+04   -0.25919E-02   -0.21112E-04   772   0.352E-02    0.628E-01
RMM:   3    -0.118367897034E+04    0.10292E-02   -0.10299E-04   655   0.191E-02    0.404E-01
RMM:   4    -0.118367908040E+04   -0.11006E-03   -0.30271E-05   514   0.148E-02
  36 F= -.11908075E+04 E0= -.11907883E+04  d E =-.123706E-02  mag=    -0.6916
       N       E                     dE             d eps       ncg     rms          rms(c)
DAV:   1    -0.118367991529E+04   -0.94495E-03   -0.32390E-04  1000   0.265E-02    0.498E-02
RMM:   2    -0.118368017973E+04   -0.26445E-03   -0.41340E-05   549   0.150E-02
  37 F= -.11908086E+04 E0= -.11907896E+04  d E =-.233167E-02  mag=    -0.6913
       N       E                     dE             d eps       ncg     rms          rms(c)
DAV:   1    -0.118367911807E+04    0.79722E-03   -0.10715E-04   940   0.184E-02    0.322E-02
RMM:   2    -0.118367992115E+04   -0.80308E-03   -0.45529E-05   425   0.111E-02
  38 F= -.11908084E+04 E0= -.11907891E+04  d E =-.207536E-02  mag=    -0.6915
       N       E                     dE             d eps       ncg     rms          rms(c)
DAV:   1    -0.118367987380E+04   -0.75573E-03   -0.32539E-05   938   0.937E-03    0.119E-01
RMM:   2    -0.118368139411E+04   -0.15203E-02   -0.11237E-04   332   0.946E-03    0.115E+00
RMM:   3    -0.118367679652E+04    0.45976E-02   -0.17770E-04   384   0.143E-02    0.342E-01
RMM:   4    -0.118367934164E+04   -0.25451E-02   -0.83328E-05   320   0.825E-03    0.306E-02
RMM:   5    -0.118367992024E+04   -0.57860E-03   -0.34273E-05   297   0.674E-03
  39 F= -.11908084E+04 E0= -.11907891E+04  d E =-.207320E-02  mag=    -0.6914
       N       E                     dE             d eps       ncg     rms          rms(c)
DAV:   1    -0.118367998546E+04   -0.64382E-03   -0.13721E-05   922   0.664E-03    0.166E-02
RMM:   2    -0.118367999940E+04   -0.13940E-04   -0.22828E-06   186   0.454E-03
  40 F= -.11908085E+04 E0= -.11907892E+04  d E =-.215194E-02  mag=    -0.6915
       N       E                     dE             d eps       ncg     rms          rms(c)
DAV:   1    -0.118367993744E+04    0.48014E-04   -0.71993E-06   904   0.548E-03    0.171E-02
RMM:   2    -0.118368001007E+04   -0.72627E-04   -0.20828E-06   211   0.364E-03
  41 F= -.11908085E+04 E0= -.11907892E+04  d E =-.216233E-02  mag=    -0.6920
       N       E                     dE             d eps       ncg     rms          rms(c)
DAV:   1    -0.118367991572E+04    0.21724E-04   -0.34757E-04   954   0.314E-02    0.812E-02
RMM:   2    -0.118368032268E+04   -0.40696E-03   -0.37423E-05   497   0.139E-02
  42 F= -.11908088E+04 E0= -.11907896E+04  d E =-.319553E-03  mag=    -0.6978
       N       E                     dE             d eps       ncg     rms          rms(c)
DAV:   1    -0.118367964092E+04    0.27480E-03   -0.32671E-03  1242   0.958E-02    0.643E-01
RMM:   2    -0.118370442485E+04   -0.24784E-01   -0.36774E-03   919   0.510E-02    0.375E+00
RMM:   3    -0.118367615556E+04    0.28269E-01   -0.10118E-03   870   0.562E-02    0.439E+00
RMM:   4    -0.118364363312E+04    0.32522E-01   -0.91163E-04   713   0.303E-02    0.168E+00
RMM:   5    -0.118366656223E+04   -0.22929E-01   -0.12324E-03   698   0.344E-02    0.290E-01
RMM:   6    -0.118367784616E+04   -0.11284E-01   -0.45162E-04   607   0.268E-02    0.756E-02
RMM:   7    -0.118368016020E+04   -0.23140E-02   -0.10685E-04   517   0.182E-02    0.254E-01
RMM:   8    -0.118367988939E+04    0.27081E-03   -0.22597E-05   386   0.131E-02
  43 F= -.11908084E+04 E0= -.11907892E+04  d E =0.928339E-04  mag=    -0.6923
       N       E                     dE             d eps       ncg     rms          rms(c)
DAV:   1    -0.118368027134E+04   -0.11114E-03   -0.12108E-02  1506   0.182E-01    0.265E-01
RMM:   2    -0.118368761588E+04   -0.73445E-02   -0.11341E-03   919   0.496E-02    0.266E+00
RMM:   3    -0.118366947443E+04    0.18141E-01   -0.74000E-04   887   0.522E-02    0.104E+00
RMM:   4    -0.118367716691E+04   -0.76925E-02   -0.35664E-04   776   0.265E-02    0.112E-01
RMM:   5    -0.118368023035E+04   -0.30634E-02   -0.13103E-04   715   0.219E-02    0.611E-02
RMM:   6    -0.118368065958E+04   -0.42923E-03   -0.33073E-05   406   0.128E-02
  44 F= -.11908092E+04 E0= -.11907899E+04  d E =-.719492E-03  mag=    -0.6924
       N       E                     dE             d eps       ncg     rms          rms(c)
DAV:   1    -0.118368067709E+04   -0.44674E-03   -0.49833E-02  1538   0.366E-01    0.146E-01
RMM:   2    -0.118368086492E+04   -0.18783E-03   -0.20438E-03   941   0.876E-02
  45 F= -.11908095E+04 E0= -.11907903E+04  d E =-.101043E-02  mag=    -0.6897
       N       E                     dE             d eps       ncg     rms          rms(c)
DAV:   1    -0.118368052631E+04    0.15077E-03   -0.16336E-03  1111   0.942E-02    0.339E-01
RMM:   2    -0.118368624907E+04   -0.57228E-02   -0.72119E-04   879   0.676E-02    0.244E+00
RMM:   3    -0.118367020840E+04    0.16041E-01   -0.71514E-04   872   0.456E-02    0.189E+00
RMM:   4    -0.118366862556E+04    0.15828E-02   -0.30833E-04   838   0.347E-02    0.291E-01
RMM:   5    -0.118367977329E+04   -0.11148E-01   -0.51754E-04   836   0.283E-02    0.361E-01
RMM:   6    -0.118367986376E+04   -0.90466E-04   -0.51740E-04   870   0.367E-02
  46 F= -.11908085E+04 E0= -.11907893E+04  d E =0.986068E-03  mag=    -0.6935
       N       E                     dE             d eps       ncg     rms          rms(c)
DAV:   1    -0.118368007520E+04   -0.30190E-03   -0.36974E-04  1002   0.517E-02    0.231E-01
RMM:   2    -0.118368286026E+04   -0.27851E-02   -0.23388E-04   796   0.254E-02    0.171E+00
RMM:   3    -0.118367928080E+04    0.35795E-02   -0.22154E-04   767   0.269E-02    0.170E+00
RMM:   4    -0.118367514965E+04    0.41311E-02   -0.68648E-05   510   0.164E-02    0.715E-01
RMM:   5    -0.118367862563E+04   -0.34760E-02   -0.14852E-04   471   0.163E-02    0.104E-01
RMM:   6    -0.118368056074E+04   -0.19351E-02   -0.12276E-04   420   0.159E-02    0.299E-02
RMM:   7    -0.118368066791E+04   -0.10716E-03   -0.16922E-05   355   0.121E-02
  47 F= -.11908093E+04 E0= -.11907900E+04  d E =0.175254E-03  mag=    -0.6907
       N       E                     dE             d eps       ncg     rms          rms(c)
DAV:   1    -0.118368078159E+04   -0.22085E-03   -0.51831E-04  1128   0.388E-02    0.277E-02
RMM:   2    -0.118368085255E+04   -0.70960E-04   -0.44718E-05   641   0.187E-02
  48 F= -.11908095E+04 E0= -.11907903E+04  d E =-.176270E-03  mag=    -0.6903
       N       E                     dE             d eps       ncg     rms          rms(c)
DAV:   1    -0.118368073102E+04    0.50573E-04   -0.48701E-03  1343   0.116E-01    0.793E-02
RMM:   2    -0.118368140205E+04   -0.67103E-03   -0.35563E-04   861   0.350E-02
  49 F= -.11908100E+04 E0= -.11907910E+04  d E =-.700680E-03  mag=    -0.6858
       N       E                     dE             d eps       ncg     rms          rms(c)
DAV:   1    -0.118368044745E+04    0.28357E-03   -0.19277E-02  1466   0.231E-01    0.441E-01
RMM:   2    -0.118368686426E+04   -0.64168E-02   -0.17332E-03   930   0.624E-02    0.260E+00
RMM:   3    -0.118367643424E+04    0.10430E-01   -0.10503E-03   894   0.596E-02    0.290E+00
RMM:   4    -0.118366158092E+04    0.14853E-01   -0.81871E-04   876   0.363E-02    0.242E-01
RMM:   5    -0.118367972959E+04   -0.18149E-01   -0.63087E-04   862   0.322E-02    0.112E-01
RMM:   6    -0.118368118172E+04   -0.14521E-02   -0.11268E-04   560   0.186E-02    0.289E-01
RMM:   7    -0.118368108165E+04    0.10007E-03   -0.19450E-04   855   0.218E-02
  50 F= -.11908096E+04 E0= -.11907904E+04  d E =-.330347E-03  mag=    -0.6929
       N       E                     dE             d eps       ncg     rms          rms(c)
DAV:   1    -0.118368040074E+04    0.78098E-03   -0.10680E-03  1096   0.469E-02    0.244E-01
RMM:   2    -0.118368245586E+04   -0.20551E-02   -0.15816E-04   761   0.325E-02    0.161E+00
RMM:   3    -0.118367670484E+04    0.57510E-02   -0.40681E-04   679   0.230E-02    0.134E+00
RMM:   4    -0.118367537449E+04    0.13304E-02   -0.22666E-04   669   0.240E-02    0.120E-01
RMM:   5    -0.118368063864E+04   -0.52642E-02   -0.20132E-04   415   0.168E-02    0.944E-02
RMM:   6    -0.118368127281E+04   -0.63417E-03   -0.65046E-05   405   0.146E-02
  51 F= -.11908098E+04 E0= -.11907906E+04  d E =-.204951E-03  mag=    -0.6917
       N       E                     dE             d eps       ncg     rms          rms(c)
DAV:   1    -0.118368132385E+04   -0.68520E-03   -0.34781E-03  1117   0.764E-02    0.144E-01
RMM:   2    -0.118368347126E+04   -0.21474E-02   -0.36693E-04   857   0.328E-02    0.136E+00
RMM:   3    -0.118367629874E+04    0.71725E-02   -0.32537E-04   847   0.293E-02    0.110E-01
RMM:   4    -0.118368079752E+04   -0.44988E-02   -0.17537E-04   537   0.166E-02    0.533E-02
RMM:   5    -0.118368126303E+04   -0.46550E-03   -0.30918E-05   360   0.123E-02
  52 F= -.11908099E+04 E0= -.11907906E+04  d E =-.219513E-03  mag=    -0.6919
       N       E                     dE             d eps       ncg     rms          rms(c)
DAV:   1    -0.118368130338E+04   -0.50585E-03   -0.13967E-02  1469   0.147E-01    0.232E-01
RMM:   2    -0.118368608410E+04   -0.47807E-02   -0.95355E-04   890   0.401E-02    0.196E+00
RMM:   3    -0.118367368677E+04    0.12397E-01   -0.53605E-04   883   0.406E-02    0.916E-01
RMM:   4    -0.118367714302E+04   -0.34562E-02   -0.20558E-04   706   0.205E-02    0.936E-02
RMM:   5    -0.118368089964E+04   -0.37566E-02   -0.18522E-04   608   0.192E-02    0.767E-02
RMM:   6    -0.118368129973E+04   -0.40009E-03   -0.43296E-05   392   0.133E-02
  53 F= -.11908099E+04 E0= -.11907907E+04  d E =-.305132E-03  mag=    -0.6912
       N       E                     dE             d eps       ncg     rms          rms(c)
DAV:   1    -0.118368134823E+04   -0.44859E-03   -0.84293E-04  1076   0.505E-02    0.102E-01
RMM:   2    -0.118368256297E+04   -0.12147E-02   -0.15739E-04   781   0.273E-02    0.113E+00
RMM:   3    -0.118367807225E+04    0.44907E-02   -0.20831E-04   631   0.216E-02    0.240E-01
RMM:   4    -0.118368090811E+04   -0.28359E-02   -0.10665E-04   427   0.143E-02    0.443E-02
RMM:   5    -0.118368128493E+04   -0.37682E-03   -0.23555E-05   324   0.113E-02
  54 F= -.11908100E+04 E0= -.11907907E+04  d E =-.935246E-05  mag=    -0.6913
       N       E                     dE             d eps       ncg     rms          rms(c)
DAV:   1    -0.118368140914E+04   -0.50102E-03   -0.59844E-03  1354   0.126E-01    0.119E-01
RMM:   2    -0.118368314317E+04   -0.17340E-02   -0.40569E-04   867   0.365E-02    0.134E+00
RMM:   3    -0.118367715283E+04    0.59903E-02   -0.30296E-04   867   0.339E-02    0.114E-01
RMM:   4    -0.118368091755E+04   -0.37647E-02   -0.15309E-04   598   0.178E-02    0.112E-01
RMM:   5    -0.118368128020E+04   -0.36265E-03   -0.28268E-05   459   0.129E-02
  55 F= -.11908100E+04 E0= -.11907907E+04  d E =-.629405E-04  mag=    -0.6916
       N       E                     dE             d eps       ncg     rms          rms(c)
DAV:   1    -0.118368145087E+04   -0.53333E-03   -0.23584E-02  1500   0.247E-01    0.240E-01
RMM:   2    -0.118368829072E+04   -0.68399E-02   -0.14772E-03   935   0.599E-02    0.263E+00
RMM:   3    -0.118366839884E+04    0.19892E-01   -0.88928E-04   894   0.565E-02    0.335E-01
RMM:   4    -0.118368002719E+04   -0.11628E-01   -0.37003E-04   820   0.280E-02    0.172E-01
RMM:   5    -0.118368111021E+04   -0.10830E-02   -0.90114E-05   767   0.221E-02    0.138E-01
RMM:   6    -0.118368122951E+04   -0.11930E-03   -0.46213E-05   596   0.154E-02
  56 F= -.11908101E+04 E0= -.11907908E+04  d E =-.129423E-03  mag=    -0.6888
       N       E                     dE             d eps       ncg     rms          rms(c)
DAV:   1    -0.118368088420E+04    0.22601E-03   -0.89764E-02  1516   0.482E-01    0.554E-01
RMM:   2    -0.118371531298E+04   -0.34429E-01   -0.65275E-03  1042   0.113E-01    0.505E+00
RMM:   3    -0.118364624955E+04    0.69063E-01   -0.28755E-03   932   0.978E-02    0.398E-01
RMM:   4    -0.118367644766E+04   -0.30198E-01   -0.11865E-03   900   0.527E-02    0.440E-01
RMM:   5    -0.118367963327E+04   -0.31856E-02   -0.19734E-04   878   0.379E-02    0.389E-01
RMM:   6    -0.118367999119E+04   -0.35792E-03   -0.71152E-05   733   0.209E-02
  57 F= -.11908091E+04 E0= -.11907898E+04  d E =0.872482E-03  mag=    -0.6913
       N       E                     dE             d eps       ncg     rms          rms(c)
DAV:   1    -0.118368057836E+04   -0.94509E-03   -0.52830E-02  1576   0.366E-01    0.568E-01
RMM:   2    -0.118370396306E+04   -0.23385E-01   -0.50426E-03   993   0.920E-02    0.292E+00
RMM:   3    -0.118367271426E+04    0.31249E-01   -0.17191E-03   912   0.846E-02    0.214E+00
RMM:   4    -0.118367375046E+04   -0.10362E-02   -0.60730E-04   886   0.391E-02    0.951E-01
RMM:   5    -0.118367820160E+04   -0.44511E-02   -0.76144E-04   875   0.362E-02    0.954E-01
RMM:   6    -0.118368052057E+04   -0.23190E-02   -0.53550E-04   757   0.309E-02    0.935E-01
RMM:   7    -0.118367965407E+04    0.86650E-03   -0.23363E-04   485   0.184E-02
  58 F= -.11908086E+04 E0= -.11907897E+04  d E =0.138428E-02  mag=    -0.6877
       N       E                     dE             d eps       ncg     rms          rms(c)
DAV:   1    -0.118367933260E+04    0.11880E-02   -0.12853E-02  1480   0.182E-01    0.911E-01
RMM:   2    -0.118375880868E+04   -0.79476E-01   -0.11284E-02  1049   0.823E-02    0.596E+00
RMM:   3    -0.118364016180E+04    0.11865E+00   -0.65127E-03   946   0.100E-01    0.659E-01
RMM:   4    -0.118367564836E+04   -0.35487E-01   -0.15314E-03   867   0.547E-02    0.651E-01
RMM:   5    -0.118367880881E+04   -0.31605E-02   -0.16997E-04   769   0.289E-02    0.687E-01
RMM:   6    -0.118367887707E+04   -0.68255E-04   -0.69956E-05   556   0.182E-02
  59 F= -.11908079E+04 E0= -.11907886E+04  d E =0.207413E-02  mag=    -0.6902
       N       E                     dE             d eps       ncg     rms          rms(c)
DAV:   1    -0.118368069956E+04   -0.18907E-02   -0.39271E-03  1239   0.102E-01    0.295E-01
RMM:   2    -0.118368931216E+04   -0.86126E-02   -0.12474E-03   892   0.448E-02    0.231E+00
RMM:   3    -0.118367152707E+04    0.17785E-01   -0.78182E-04   851   0.452E-02    0.570E-01
RMM:   4    -0.118367950184E+04   -0.79748E-02   -0.30745E-04   611   0.229E-02    0.235E-01
RMM:   5    -0.118368067006E+04   -0.11682E-02   -0.98412E-05   475   0.164E-02    0.179E-01
RMM:   6    -0.118368124826E+04   -0.57820E-03   -0.41562E-05   391   0.138E-02
  60 F= -.11908102E+04 E0= -.11907910E+04  d E =-.248690E-03  mag=    -0.6900
       N       E                     dE             d eps       ncg     rms          rms(c)
DAV:   1    -0.118368075505E+04   -0.84991E-04   -0.59039E-04  1048   0.425E-02    0.222E-01
RMM:   2    -0.118368679546E+04   -0.60404E-02   -0.59803E-04   800   0.272E-02    0.241E+00
RMM:   3    -0.118366996410E+04    0.16831E-01   -0.62355E-04   766   0.320E-02    0.200E-01
RMM:   4    -0.118368040340E+04   -0.10439E-01   -0.29966E-04   453   0.188E-02    0.102E-01
RMM:   5    -0.118368112286E+04   -0.71947E-03   -0.58589E-05   354   0.125E-02
  61 F= -.11908101E+04 E0= -.11907908E+04  d E =0.110451E-03  mag=    -0.6938
       N       E                     dE             d eps       ncg     rms          rms(c)
DAV:   1    -0.118368104834E+04   -0.64494E-03   -0.44584E-05  1032   0.134E-02    0.363E-01
RMM:   2    -0.118368388231E+04   -0.28340E-02   -0.15958E-04   432   0.122E-02    0.219E+00
RMM:   3    -0.118367509858E+04    0.87837E-02   -0.51075E-04   519   0.218E-02    0.199E+00
RMM:   4    -0.118367286405E+04    0.22345E-02   -0.55840E-04   524   0.240E-02    0.885E-02
RMM:   5    -0.118368063006E+04   -0.77660E-02   -0.27005E-04   450   0.183E-02    0.455E-02
RMM:   6    -0.118368120337E+04   -0.57331E-03   -0.46286E-05   379   0.122E-02
  62 F= -.11908102E+04 E0= -.11907909E+04  d E =0.280013E-04  mag=    -0.6913
       N       E                     dE             d eps       ncg     rms          rms(c)
DAV:   1    -0.118368129565E+04   -0.66559E-03   -0.13731E-04  1045   0.222E-02    0.294E-02
RMM:   2    -0.118368134569E+04   -0.50045E-04   -0.24647E-05   536   0.161E-02
  63 F= -.11908103E+04 E0= -.11907911E+04  d E =-.131310E-03  mag=    -0.6914
       N       E                     dE             d eps       ncg     rms          rms(c)
DAV:   1    -0.118368111077E+04    0.18488E-03   -0.13335E-03  1060   0.614E-02    0.452E-02
RMM:   2    -0.118368151754E+04   -0.40677E-03   -0.11699E-04   753   0.294E-02
  64 F= -.11908104E+04 E0= -.11907913E+04  d E =-.270148E-03  mag=    -0.6919
       N       E                     dE             d eps       ncg     rms          rms(c)
DAV:   1    -0.118368116694E+04   -0.56166E-04   -0.51639E-03  1306   0.120E-01    0.790E-02
RMM:   2    -0.118368189391E+04   -0.72697E-03   -0.34155E-04   851   0.421E-02
  65 F= -.11908107E+04 E0= -.11907917E+04  d E =-.580613E-03  mag=    -0.6938
       N       E                     dE             d eps       ncg     rms          rms(c)
DAV:   1    -0.118368056612E+04    0.60081E-03   -0.20226E-02  1476   0.235E-01    0.340E-01
RMM:   2    -0.118368594530E+04   -0.53792E-02   -0.15733E-03   926   0.598E-02    0.224E+00
RMM:   3    -0.118367967643E+04    0.62689E-02   -0.56836E-04   893   0.542E-02    0.218E+00
RMM:   4    -0.118367254444E+04    0.71320E-02   -0.30547E-04   810   0.274E-02    0.210E-01
RMM:   5    -0.118368072580E+04   -0.81814E-02   -0.31747E-04   782   0.301E-02    0.134E-01
RMM:   6    -0.118368160756E+04   -0.88176E-03   -0.10086E-04   640   0.197E-02
  66 F= -.11908103E+04 E0= -.11907911E+04  d E =-.162872E-03  mag=    -0.6920
       N       E                     dE             d eps       ncg     rms          rms(c)
DAV:   1    -0.118368169760E+04   -0.97180E-03   -0.74052E-03  1452   0.141E-01    0.109E-01
RMM:   2    -0.118368267246E+04   -0.97486E-03   -0.48393E-04   867   0.368E-02
  67 F= -.11908115E+04 E0= -.11907928E+04  d E =-.130192E-02  mag=    -0.6899
       N       E                     dE             d eps       ncg     rms          rms(c)
DAV:   1    -0.118367949422E+04    0.22034E-02   -0.24376E-04   980   0.425E-02    0.171E-01
RMM:   2    -0.118368217906E+04   -0.26848E-02   -0.10889E-04   507   0.158E-02    0.107E+00
RMM:   3    -0.118367805620E+04    0.41229E-02   -0.15832E-04   506   0.184E-02    0.222E-01
RMM:   4    -0.118368132757E+04   -0.32714E-02   -0.94351E-05   357   0.142E-02    0.762E-02
RMM:   5    -0.118368169972E+04   -0.37215E-03   -0.27019E-05   336   0.119E-02
  68 F= -.11908105E+04 E0= -.11907912E+04  d E =0.976851E-03  mag=    -0.6916
       N       E                     dE             d eps       ncg     rms          rms(c)
DAV:   1    -0.118368175473E+04   -0.42716E-03   -0.30192E-05   970   0.120E-02    0.135E-02
RMM:   2    -0.118368177016E+04   -0.15429E-04   -0.35979E-06   274   0.923E-03
  69 F= -.11908106E+04 E0= -.11907913E+04  d E =0.905436E-03  mag=    -0.6914
       N       E                     dE             d eps       ncg     rms          rms(c)
DAV:   1    -0.118368176582E+04   -0.11091E-04   -0.66165E-06   952   0.831E-03    0.277E-02
RMM:   2    -0.118368177778E+04   -0.11967E-04   -0.93023E-07   202   0.478E-03
  70 F= -.11908106E+04 E0= -.11907913E+04  d E =0.897332E-03  mag=    -0.6910
       N       E                     dE             d eps       ncg     rms          rms(c)
DAV:   1    -0.118368157876E+04    0.18706E-03   -0.14799E-05   973   0.666E-03    0.102E-01
RMM:   2    -0.118368295248E+04   -0.13737E-02   -0.92181E-05   352   0.974E-03    0.112E+00
RMM:   3    -0.118367826015E+04    0.46923E-02   -0.18374E-04   386   0.149E-02    0.228E-01
RMM:   4    -0.118368099550E+04   -0.27353E-02   -0.89394E-05   320   0.854E-03    0.220E-02
RMM:   5    -0.118368170731E+04   -0.71181E-03   -0.44000E-05   289   0.761E-03
  71 F= -.11908105E+04 E0= -.11907912E+04  d E =0.966556E-03  mag=    -0.6919
       N       E                     dE             d eps       ncg     rms          rms(c)
DAV:   1    -0.118368175519E+04   -0.75970E-03   -0.17293E-05   986   0.707E-03    0.150E-02
RMM:   2    -0.118368177672E+04   -0.21525E-04   -0.40236E-06   214   0.506E-03
  72 F= -.11908106E+04 E0= -.11907913E+04  d E =0.896440E-03  mag=    -0.6921
