       N       E                     dE             d eps       ncg     rms          rms(c)
DAV:   1     0.481036819782E+04    0.48104E+04   -0.17946E+05  1856   0.953E+02
DAV:   2    -0.632537698317E+02   -0.48736E+04   -0.44632E+04  2400   0.216E+02
DAV:   3    -0.120087917351E+04   -0.11376E+04   -0.11309E+04  1984   0.113E+02
DAV:   4    -0.124919798808E+04   -0.48319E+02   -0.48018E+02  1920   0.310E+01
DAV:   5    -0.125042975734E+04   -0.12318E+01   -0.12281E+01  2272   0.459E+00    0.815E+01
RMM:   6    -0.124310408751E+04    0.73257E+01   -0.95338E+01  1787   0.118E+01    0.765E+01
RMM:   7    -0.121895703519E+04    0.24147E+02   -0.11214E+01  1605   0.467E+00    0.483E+01
RMM:   8    -0.120365772160E+04    0.15299E+02   -0.14596E+01  1570   0.491E+00    0.397E+01
RMM:   9    -0.118943206326E+04    0.14226E+02   -0.14177E+01  1673   0.515E+00    0.286E+01
RMM:  10    -0.117702067655E+04    0.12411E+02   -0.22590E+01  1653   0.612E+00    0.189E+01
RMM:  11    -0.117585698458E+04    0.11637E+01   -0.14363E+01  1539   0.506E+00    0.107E+01
RMM:  12    -0.117658850377E+04   -0.73152E+00   -0.23464E+00  1633   0.237E+00    0.688E+00
RMM:  13    -0.117627068191E+04    0.31782E+00   -0.41637E-01  1709   0.106E+00    0.378E+00
RMM:  14    -0.117597881750E+04    0.29186E+00   -0.90942E-01  1541   0.120E+00    0.236E+00
RMM:  15    -0.117597722944E+04    0.15881E-02   -0.15291E-01  1625   0.618E-01    0.895E-01
RMM:  16    -0.117597328067E+04    0.39488E-02   -0.16202E-02  1616   0.216E-01    0.583E-01
RMM:  17    -0.117597366703E+04   -0.38636E-03   -0.12631E-02  1668   0.165E-01    0.275E-01
RMM:  18    -0.117597420432E+04   -0.53729E-03   -0.51033E-03  1744   0.103E-01    0.196E-01
RMM:  19    -0.117597409035E+04    0.11398E-03   -0.12319E-03  1559   0.537E-02    0.146E-01
RMM:  20    -0.117597433969E+04   -0.24934E-03   -0.11495E-03  1613   0.421E-02    0.109E-01
RMM:  21    -0.117597433862E+04    0.10742E-05   -0.42875E-04  1548   0.279E-02    0.738E-02
RMM:  22    -0.117597436569E+04   -0.27071E-04   -0.13008E-04  1573   0.164E-02    0.484E-02
RMM:  23    -0.117597437751E+04   -0.11822E-04   -0.30997E-05  1603   0.847E-03    0.347E-02
RMM:  24    -0.117597437585E+04    0.16573E-05   -0.13391E-05  1629   0.538E-03    0.201E-02
RMM:  25    -0.117597438103E+04   -0.51728E-05   -0.57475E-06  1365   0.329E-03    0.197E-02
RMM:  26    -0.117597438490E+04   -0.38777E-05   -0.32300E-06  1155   0.267E-03    0.165E-02
RMM:  27    -0.117597437990E+04    0.50064E-05   -0.71837E-06  1530   0.344E-03    0.106E-02
RMM:  28    -0.117597437910E+04    0.79537E-06   -0.41677E-06  1173   0.255E-03
   1 F= -.11830593E+04 E0= -.11830593E+04  d E =-.118306E+04  mag=     1.9997
       N       E                     dE             d eps       ncg     rms          rms(c)
DAV:   1    -0.117597168889E+04    0.26910E-02   -0.44490E-01  1696   0.126E+00    0.171E-01
RMM:   2    -0.117597308510E+04   -0.13962E-02   -0.15944E-02  1729   0.198E-01    0.157E-01
RMM:   3    -0.117597333325E+04   -0.24814E-03   -0.35855E-03  1970   0.847E-02    0.140E-01
RMM:   4    -0.117597320594E+04    0.12730E-03   -0.56996E-04  1853   0.335E-02    0.112E-01
RMM:   5    -0.117597310368E+04    0.10226E-03   -0.50656E-04  1583   0.281E-02    0.676E-02
RMM:   6    -0.117597311629E+04   -0.12609E-04   -0.23998E-04  1739   0.199E-02    0.518E-02
RMM:   7    -0.117597309772E+04    0.18575E-04   -0.47503E-05  1626   0.101E-02    0.291E-02
RMM:   8    -0.117597310265E+04   -0.49365E-05   -0.42533E-05  1567   0.812E-03    0.154E-02
RMM:   9    -0.117597309869E+04    0.39637E-05   -0.92577E-06  1631   0.447E-03    0.110E-02
RMM:  10    -0.117597309917E+04   -0.48354E-06   -0.17307E-05  1552   0.500E-03    0.662E-03
RMM:  11    -0.117597309816E+04    0.10100E-05   -0.24880E-06  1127   0.222E-03    0.430E-03
RMM:  12    -0.117597309811E+04    0.55537E-07   -0.11468E-06  1010   0.131E-03
   2 F= -.11830587E+04 E0= -.11830587E+04  d E =0.640660E-03  mag=     2.0000
       N       E                     dE             d eps       ncg     rms          rms(c)
DAV:   1    -0.117597444617E+04   -0.13480E-02   -0.15044E-01  1760   0.729E-01    0.100E-01
RMM:   2    -0.117597484210E+04   -0.39592E-03   -0.47281E-03  1722   0.111E-01    0.905E-02
RMM:   3    -0.117597488657E+04   -0.44477E-04   -0.86696E-04  1864   0.453E-02    0.787E-02
RMM:   4    -0.117597484118E+04    0.45394E-04   -0.20042E-04  1774   0.201E-02    0.598E-02
RMM:   5    -0.117597481719E+04    0.23986E-04   -0.14956E-04  1614   0.156E-02    0.369E-02
RMM:   6    -0.117597481973E+04   -0.25364E-05   -0.59684E-05  1857   0.100E-02    0.289E-02
RMM:   7    -0.117597481541E+04    0.43144E-05   -0.16185E-05  1588   0.561E-03    0.148E-02
RMM:   8    -0.117597481738E+04   -0.19663E-05   -0.10247E-05  1585   0.435E-03    0.822E-03
RMM:   9    -0.117597481612E+04    0.12599E-05   -0.39475E-06  1400   0.264E-03    0.560E-03
RMM:  10    -0.117597481617E+04   -0.50262E-07   -0.33057E-06  1276   0.227E-03
   3 F= -.11830600E+04 E0= -.11830600E+04  d E =-.705034E-03  mag=     2.0000
       N       E                     dE             d eps       ncg     rms          rms(c)
DAV:   1    -0.117597410568E+04    0.71044E-03   -0.28377E-01  1920   0.108E+00    0.135E-01
RMM:   2    -0.117597516251E+04   -0.10568E-02   -0.11849E-02  1792   0.156E-01    0.113E-01
RMM:   3    -0.117597531708E+04   -0.15457E-03   -0.16663E-03  1858   0.614E-02    0.936E-02
RMM:   4    -0.117597534079E+04   -0.23713E-04   -0.37714E-04  1795   0.263E-02    0.679E-02
RMM:   5    -0.117597532152E+04    0.19274E-04   -0.13563E-04  1660   0.158E-02    0.421E-02
RMM:   6    -0.117597532901E+04   -0.74857E-05   -0.64393E-05  1712   0.105E-02    0.279E-02
RMM:   7    -0.117597534115E+04   -0.12148E-04   -0.16708E-05  1637   0.622E-03    0.132E-02
RMM:   8    -0.117597534316E+04   -0.20034E-05   -0.69012E-06  1544   0.362E-03    0.898E-03
RMM:   9    -0.117597534193E+04    0.12281E-05   -0.35619E-06  1330   0.251E-03    0.618E-03
RMM:  10    -0.117597534167E+04    0.25601E-06   -0.20948E-06  1064   0.194E-03
   4 F= -.11830609E+04 E0= -.11830609E+04  d E =-.913589E-03  mag=     2.0000
       N       E                     dE             d eps       ncg     rms          rms(c)
DAV:   1    -0.117597533243E+04    0.94994E-05   -0.15748E-04  1760   0.255E-02    0.407E-03
RMM:   2    -0.117597533315E+04   -0.71643E-06   -0.66164E-06  1242   0.359E-03
   5 F= -.11830609E+04 E0= -.11830609E+04  d E =-.914267E-03  mag=     2.0000
       N       E                     dE             d eps       ncg     rms          rms(c)
DAV:   1    -0.117597516677E+04    0.16566E-03   -0.13014E-01  1760   0.756E-01    0.970E-02
RMM:   2    -0.117597576166E+04   -0.59489E-03   -0.68477E-03  1806   0.109E-01    0.752E-02
RMM:   3    -0.117597586126E+04   -0.99597E-04   -0.84400E-04  1837   0.428E-02    0.597E-02
RMM:   4    -0.117597589514E+04   -0.33884E-04   -0.22335E-04  1811   0.192E-02    0.422E-02
RMM:   5    -0.117597588851E+04    0.66306E-05   -0.52992E-05  1726   0.978E-03    0.286E-02
RMM:   6    -0.117597589465E+04   -0.61396E-05   -0.24344E-05  1596   0.668E-03    0.171E-02
RMM:   7    -0.117597590383E+04   -0.91770E-05   -0.96046E-06  1623   0.462E-03    0.766E-03
RMM:   8    -0.117597590407E+04   -0.24394E-06   -0.24331E-06  1078   0.229E-03
   6 F= -.11830617E+04 E0= -.11830617E+04  d E =-.754050E-03  mag=     2.0000
