       N       E                     dE             d eps       ncg     rms          rms(c)
DAV:   1     0.498193852725E+04    0.49819E+04   -0.17678E+05  1872   0.927E+02
DAV:   2    -0.468271054084E+02   -0.50288E+04   -0.46060E+04  2592   0.209E+02
DAV:   3    -0.120414091243E+04   -0.11573E+04   -0.11529E+04  2088   0.110E+02
DAV:   4    -0.125101142999E+04   -0.46871E+02   -0.46609E+02  2052   0.292E+01
DAV:   5    -0.125217098207E+04   -0.11596E+01   -0.11570E+01  2376   0.415E+00    0.647E+01
RMM:   6    -0.123820121499E+04    0.13970E+02   -0.83248E+00  1588   0.322E+00    0.533E+01
RMM:   7    -0.119388607909E+04    0.44315E+02   -0.91775E+01  1589   0.104E+01    0.290E+01
RMM:   8    -0.118848937437E+04    0.53967E+01   -0.12845E+01  1600   0.414E+00    0.203E+01
RMM:   9    -0.118662893102E+04    0.18604E+01   -0.27611E+01  1584   0.595E+00    0.949E+00
RMM:  10    -0.118634810294E+04    0.28083E+00   -0.10608E+00  1634   0.127E+00    0.635E+00
RMM:  11    -0.118568310656E+04    0.66500E+00   -0.34847E+00  1584   0.205E+00    0.206E+00
RMM:  12    -0.118556715695E+04    0.11595E+00   -0.28485E-01  1593   0.519E-01    0.935E-01
RMM:  13    -0.118554993306E+04    0.17224E-01   -0.92174E-02  1596   0.333E-01    0.372E-01
RMM:  14    -0.118554683822E+04    0.30948E-02   -0.11231E-02  1619   0.120E-01    0.245E-01
RMM:  15    -0.118554693281E+04   -0.94582E-04   -0.36875E-03  1588   0.660E-02    0.206E-01
RMM:  16    -0.118554751092E+04   -0.57811E-03   -0.65848E-03  1584   0.934E-02    0.161E-01
RMM:  17    -0.118554701687E+04    0.49405E-03   -0.88371E-04  1550   0.342E-02    0.708E-02
RMM:  18    -0.118554704380E+04   -0.26931E-04   -0.45360E-05  1030   0.959E-03
   1 F= -.11929525E+04 E0= -.11929525E+04  d E =-.119295E+04  mag=    -0.0002
       N       E                     dE             d eps       ncg     rms          rms(c)
DAV:   1    -0.118554639053E+04    0.62634E-03   -0.52031E-01  1728   0.113E+00    0.261E-01
RMM:   2    -0.118554711796E+04   -0.72743E-03   -0.15990E-02  1622   0.172E-01    0.234E-01
RMM:   3    -0.118554622220E+04    0.89576E-03   -0.10335E-03  1661   0.403E-02    0.191E-01
RMM:   4    -0.118554534685E+04    0.87535E-03   -0.46346E-03  1584   0.750E-02    0.748E-02
RMM:   5    -0.118554529925E+04    0.47601E-04   -0.11239E-04  1069   0.152E-02
   2 F= -.11929516E+04 E0= -.11929516E+04  d E =0.947390E-03  mag=    -0.0000
       N       E                     dE             d eps       ncg     rms          rms(c)
DAV:   1    -0.118554789741E+04   -0.25506E-02   -0.17280E-01  1728   0.651E-01    0.141E-01
RMM:   2    -0.118554805841E+04   -0.16100E-03   -0.44910E-03  1618   0.935E-02    0.124E-01
RMM:   3    -0.118554772262E+04    0.33579E-03   -0.28716E-04  1161   0.227E-02    0.969E-02
RMM:   4    -0.118554744203E+04    0.28059E-03   -0.16392E-03  1584   0.450E-02    0.367E-02
RMM:   5    -0.118554742878E+04    0.13252E-04   -0.24699E-05  1004   0.819E-03
   3 F= -.11929533E+04 E0= -.11929533E+04  d E =-.721762E-03  mag=    -0.0000
