       N       E                     dE             d eps       ncg     rms          rms(c)
DAV:   1     0.499981476706E+04    0.49998E+04   -0.18006E+05  1872   0.936E+02
DAV:   2    -0.386814462304E+02   -0.50385E+04   -0.46308E+04  2592   0.215E+02
DAV:   3    -0.120172848175E+04   -0.11630E+04   -0.11557E+04  2088   0.112E+02
DAV:   4    -0.125078905432E+04   -0.49061E+02   -0.48781E+02  2016   0.299E+01
DAV:   5    -0.125201731969E+04   -0.12283E+01   -0.12252E+01  2376   0.447E+00    0.990E+01
RMM:   6    -0.125190819943E+04    0.10912E+00   -0.20609E+02  1857   0.178E+01    0.991E+01
RMM:   7    -0.122872617049E+04    0.23182E+02   -0.11082E+01  1602   0.464E+00    0.752E+01
RMM:   8    -0.120099844231E+04    0.27728E+02   -0.29561E+01  1595   0.689E+00    0.378E+01
RMM:   9    -0.119217497924E+04    0.88235E+01   -0.74855E+00  1591   0.359E+00    0.317E+01
RMM:  10    -0.117762443648E+04    0.14551E+02   -0.20035E+01  1584   0.547E+00    0.222E+01
RMM:  11    -0.117283809270E+04    0.47863E+01   -0.19504E+01  1590   0.517E+00    0.135E+01
RMM:  12    -0.117394585568E+04   -0.11078E+01   -0.34853E+00  1606   0.268E+00    0.867E+00
RMM:  13    -0.117385865538E+04    0.87200E-01   -0.22745E-01  1739   0.679E-01    0.607E+00
RMM:  14    -0.117344207843E+04    0.41658E+00   -0.15542E+00  1594   0.150E+00    0.433E+00
RMM:  15    -0.117336156720E+04    0.80511E-01   -0.20326E-01  1639   0.601E-01    0.202E+00
RMM:  16    -0.117331500456E+04    0.46563E-01   -0.11701E-01  1588   0.457E-01    0.102E+00
RMM:  17    -0.117331071957E+04    0.42850E-02   -0.29634E-02  1641   0.176E-01    0.690E-01
RMM:  18    -0.117330673911E+04    0.39805E-02   -0.87494E-03  1580   0.892E-02    0.368E-01
RMM:  19    -0.117330767996E+04   -0.94085E-03   -0.27904E-03  1585   0.575E-02    0.587E-01
RMM:  20    -0.117330678557E+04    0.89439E-03   -0.31746E-03  1276   0.399E-02    0.274E-01
RMM:  21    -0.117330659108E+04    0.19449E-03   -0.77719E-04  1195   0.350E-02    0.121E-01
RMM:  22    -0.117330671292E+04   -0.12184E-03   -0.11852E-04  1046   0.167E-02    0.792E-02
RMM:  23    -0.117330674624E+04   -0.33322E-04   -0.50121E-05  1005   0.121E-02
   1 F= -.11804398E+04 E0= -.11804341E+04  d E =-.118044E+04  mag=     1.8414
       N       E                     dE             d eps       ncg     rms          rms(c)
DAV:   1    -0.117330390996E+04    0.28030E-02   -0.43591E-01  1656   0.123E+00    0.193E-01
RMM:   2    -0.117330566079E+04   -0.17508E-02   -0.21604E-02  1690   0.203E-01    0.169E-01
RMM:   3    -0.117330535688E+04    0.30391E-03   -0.89218E-04  1482   0.457E-02    0.154E-01
RMM:   4    -0.117330504476E+04    0.31212E-03   -0.10557E-03  1552   0.392E-02    0.847E-02
RMM:   5    -0.117330502214E+04    0.22626E-04   -0.19892E-04  1064   0.201E-02
   2 F= -.11804383E+04 E0= -.11804325E+04  d E =0.148309E-02  mag=     1.8359
       N       E                     dE             d eps       ncg     rms          rms(c)
DAV:   1    -0.117330682538E+04   -0.17806E-02   -0.18649E-01  1692   0.800E-01    0.117E-01
RMM:   2    -0.117330748731E+04   -0.66193E-03   -0.81060E-03  1673   0.129E-01    0.992E-02
RMM:   3    -0.117330735920E+04    0.12811E-03   -0.28684E-04  1150   0.274E-02    0.899E-02
RMM:   4    -0.117330725878E+04    0.10043E-03   -0.19024E-04  1041   0.193E-02    0.608E-02
RMM:   5    -0.117330719630E+04    0.62476E-04   -0.34615E-04  1274   0.227E-02
   3 F= -.11804403E+04 E0= -.11804347E+04  d E =-.533647E-03  mag=     1.8410
