       N       E                     dE             d eps       ncg     rms          rms(c)
DAV:   1     0.518230543772E+04    0.51823E+04   -0.17451E+05  1872   0.930E+02
DAV:   2     0.737240998209E+02   -0.51086E+04   -0.46786E+04  2628   0.215E+02
DAV:   3    -0.119049093586E+04   -0.12642E+04   -0.12554E+04  2232   0.117E+02
DAV:   4    -0.125183533765E+04   -0.61344E+02   -0.60955E+02  2304   0.343E+01
DAV:   5    -0.125380986088E+04   -0.19745E+01   -0.19688E+01  2340   0.566E+00    0.742E+01
RMM:   6    -0.123489831691E+04    0.18912E+02   -0.91236E+00  2096   0.498E+00    0.580E+01
RMM:   7    -0.120014148216E+04    0.34757E+02   -0.70624E+01  2112   0.153E+01    0.308E+01
RMM:   8    -0.118879574866E+04    0.11346E+02   -0.17897E+01  2090   0.708E+00    0.266E+01
RMM:   9    -0.118310422927E+04    0.56915E+01   -0.19959E+01  2075   0.680E+00    0.228E+01
RMM:  10    -0.118322217136E+04   -0.11794E+00   -0.37268E+00  2108   0.602E+00    0.145E+01
RMM:  11    -0.118418336152E+04   -0.96119E+00   -0.26192E+00  2102   0.290E+00    0.884E+00
RMM:  12    -0.118426250361E+04   -0.79142E-01   -0.44557E-01  2143   0.136E+00    0.578E+00
RMM:  13    -0.118368940348E+04    0.57310E+00   -0.72942E-01  2048   0.115E+00    0.284E+00
RMM:  14    -0.118363182472E+04    0.57579E-01   -0.33994E-01  2041   0.204E+00    0.212E+00
RMM:  15    -0.118363280553E+04   -0.98082E-03   -0.38677E-02  2052   0.412E-01    0.194E+00
RMM:  16    -0.118363119944E+04    0.16061E-02   -0.22816E-02  2075   0.246E-01    0.113E+00
RMM:  17    -0.118363211924E+04   -0.91980E-03   -0.48782E-03  1520   0.145E-01    0.109E+00
RMM:  18    -0.118363376360E+04   -0.16444E-02   -0.26877E-03  1521   0.155E-01    0.826E-01
RMM:  19    -0.118363686160E+04   -0.30980E-02   -0.52912E-03  1714   0.194E-01    0.538E-01
RMM:  20    -0.118363722042E+04   -0.35882E-03   -0.78925E-03  1930   0.203E-01    0.337E-01
RMM:  21    -0.118363657744E+04    0.64298E-03   -0.26777E-03  1555   0.151E-01    0.187E-01
RMM:  22    -0.118363655559E+04    0.21849E-04   -0.10753E-03  1302   0.121E-01    0.124E-01
RMM:  23    -0.118363660570E+04   -0.50116E-04   -0.23653E-04  1211   0.148E-01
   1 F= -.11910267E+04 E0= -.11910267E+04  d E =-.119103E+04  mag=    -0.0015
       N       E                     dE             d eps       ncg     rms          rms(c)
DAV:   1    -0.118363166429E+04    0.48913E-02   -0.78236E-01  1908   0.175E+00    0.677E-01
RMM:   2    -0.118363525177E+04   -0.35875E-02   -0.39675E-02  2218   0.251E-01    0.529E-01
RMM:   3    -0.118363546373E+04   -0.21196E-03   -0.43429E-03  1293   0.442E-01    0.645E-01
RMM:   4    -0.118363546795E+04   -0.42199E-05   -0.97922E-04  1311   0.123E-01
   2 F= -.11910263E+04 E0= -.11910263E+04  d E =0.395664E-03  mag=     0.0009
       N       E                     dE             d eps       ncg     rms          rms(c)
DAV:   1    -0.118363623655E+04   -0.77281E-03   -0.26895E-01  2016   0.104E+00    0.262E-01
RMM:   2    -0.118363739745E+04   -0.11609E-02   -0.12711E-02  2121   0.150E-01    0.363E-01
RMM:   3    -0.118363752334E+04   -0.12589E-03   -0.17404E-03  1278   0.326E-01    0.195E-01
RMM:   4    -0.118363743850E+04    0.84847E-04   -0.15004E-04  1153   0.933E-02
   3 F= -.11910278E+04 E0= -.11910278E+04  d E =-.114772E-02  mag=     0.0003
       N       E                     dE             d eps       ncg     rms          rms(c)
DAV:   1    -0.118363474011E+04    0.27832E-02   -0.50092E-01  1764   0.132E+00    0.474E-01
RMM:   2    -0.118363688518E+04   -0.21451E-02   -0.23809E-02  2159   0.181E-01    0.405E-01
RMM:   3    -0.118363698249E+04   -0.97313E-04   -0.24342E-03  1277   0.318E-01    0.444E-01
RMM:   4    -0.118363699285E+04   -0.10364E-04   -0.45892E-04  1225   0.101E-01
   4 F= -.11910283E+04 E0= -.11910282E+04  d E =-.428166E-03  mag=     0.0001
       N       E                     dE             d eps       ncg     rms          rms(c)
DAV:   1    -0.118363733604E+04   -0.35355E-03   -0.38413E-02  2016   0.393E-01    0.147E-01
RMM:   2    -0.118363748953E+04   -0.15349E-03   -0.16350E-03  1755   0.523E-02    0.237E-01
RMM:   3    -0.118363750542E+04   -0.15888E-04   -0.24847E-04  1140   0.114E-01
   5 F= -.11910285E+04 E0= -.11910285E+04  d E =-.707887E-03  mag=     0.0002
