       N       E                     dE             d eps       ncg     rms          rms(c)
DAV:   1     0.471470894803E+04    0.47147E+04   -0.17862E+05  1888   0.947E+02
DAV:   2    -0.702618680424E+02   -0.47850E+04   -0.43765E+04  2432   0.212E+02
DAV:   3    -0.119450669862E+04   -0.11242E+04   -0.11187E+04  1984   0.111E+02
DAV:   4    -0.124137285209E+04   -0.46866E+02   -0.46569E+02  1920   0.299E+01
DAV:   5    -0.124258867526E+04   -0.12158E+01   -0.12128E+01  2336   0.456E+00    0.750E+01
RMM:   6    -0.122347514095E+04    0.19114E+02   -0.16022E+01  1591   0.486E+00    0.522E+01
RMM:   7    -0.120349004995E+04    0.19985E+02   -0.28997E+01  1542   0.623E+00    0.387E+01
RMM:   8    -0.118908005792E+04    0.14410E+02   -0.13527E+01  1540   0.517E+00    0.308E+01
RMM:   9    -0.117629157359E+04    0.12788E+02   -0.18684E+01  1576   0.568E+00    0.215E+01
RMM:  10    -0.117475506718E+04    0.15365E+01   -0.19284E+01  1553   0.571E+00    0.991E+00
RMM:  11    -0.117554957236E+04   -0.79451E+00   -0.34315E+00  1600   0.277E+00    0.776E+00
RMM:  12    -0.117488507993E+04    0.66449E+00   -0.95724E-01  1542   0.135E+00    0.348E+00
RMM:  13    -0.117471280031E+04    0.17228E+00   -0.65357E-01  1540   0.110E+00    0.161E+00
RMM:  14    -0.117469641132E+04    0.16389E-01   -0.10397E-01  1608   0.513E-01    0.862E-01
RMM:  15    -0.117469568299E+04    0.72833E-03   -0.33314E-02  1613   0.262E-01    0.645E-01
RMM:  16    -0.117469404883E+04    0.16342E-02   -0.13184E-02  1671   0.170E-01    0.308E-01
RMM:  17    -0.117469510699E+04   -0.10582E-02   -0.76525E-03  1696   0.116E-01    0.260E-01
RMM:  18    -0.117469524004E+04   -0.13306E-03   -0.14585E-03  1783   0.563E-02    0.232E-01
RMM:  19    -0.117469537417E+04   -0.13412E-03   -0.93702E-04  1545   0.418E-02    0.167E-01
RMM:  20    -0.117469533946E+04    0.34701E-04   -0.51155E-04  1658   0.312E-02    0.761E-02
RMM:  21    -0.117469527607E+04    0.63398E-04   -0.36744E-04  1556   0.255E-02    0.573E-02
RMM:  22    -0.117469528387E+04   -0.78032E-05   -0.97333E-05  1716   0.121E-02    0.379E-02
RMM:  23    -0.117469528349E+04    0.37780E-06   -0.29501E-05  1755   0.620E-03    0.327E-02
RMM:  24    -0.117469527881E+04    0.46782E-05   -0.19955E-05  1615   0.514E-03    0.125E-02
RMM:  25    -0.117469527950E+04   -0.68633E-06   -0.10747E-05  1634   0.391E-03    0.125E-02
RMM:  26    -0.117469527814E+04    0.13634E-05   -0.47527E-06  1246   0.234E-03    0.894E-03
RMM:  27    -0.117469527718E+04    0.95562E-06   -0.13062E-06  1035   0.138E-03
   1 F= -.11817503E+04 E0= -.11817503E+04  d E =-.118175E+04  mag=     1.0000
       N       E                     dE             d eps       ncg     rms          rms(c)
DAV:   1    -0.117469432776E+04    0.95038E-03   -0.17189E-01  1792   0.780E-01    0.106E-01
RMM:   2    -0.117469478128E+04   -0.45352E-03   -0.52419E-03  1569   0.116E-01    0.106E-01
RMM:   3    -0.117469486033E+04   -0.79046E-04   -0.11328E-03  1722   0.493E-02    0.998E-02
RMM:   4    -0.117469481954E+04    0.40790E-04   -0.21443E-04  1911   0.209E-02    0.923E-02
RMM:   5    -0.117469473695E+04    0.82581E-04   -0.42097E-04  1544   0.242E-02    0.535E-02
RMM:   6    -0.117469476579E+04   -0.28836E-04   -0.22239E-04  1548   0.187E-02    0.437E-02
RMM:   7    -0.117469473690E+04    0.28895E-04   -0.26123E-05  1543   0.780E-03    0.316E-02
RMM:   8    -0.117469472991E+04    0.69810E-05   -0.45526E-05  1543   0.736E-03    0.156E-02
RMM:   9    -0.117469472899E+04    0.92445E-06   -0.10996E-05  1635   0.455E-03    0.106E-02
RMM:  10    -0.117469472859E+04    0.40058E-06   -0.72394E-06  1471   0.330E-03
   2 F= -.11817501E+04 E0= -.11817501E+04  d E =0.184636E-03  mag=     1.0000
       N       E                     dE             d eps       ncg     rms          rms(c)
DAV:   1    -0.117469533703E+04   -0.60804E-03   -0.53481E-02  1856   0.433E-01    0.595E-02
RMM:   2    -0.117469545333E+04   -0.11630E-03   -0.14172E-03  1561   0.626E-02    0.590E-02
RMM:   3    -0.117469546895E+04   -0.15620E-04   -0.28881E-04  1668   0.260E-02    0.550E-02
RMM:   4    -0.117469545008E+04    0.18875E-04   -0.60033E-05  1755   0.116E-02    0.483E-02
RMM:   5    -0.117469542830E+04    0.21778E-04   -0.14507E-04  1547   0.144E-02    0.249E-02
RMM:   6    -0.117469543194E+04   -0.36343E-05   -0.38984E-05  1556   0.864E-03    0.203E-02
RMM:   7    -0.117469542657E+04    0.53631E-05   -0.56387E-06  1477   0.372E-03    0.138E-02
RMM:   8    -0.117469542520E+04    0.13687E-05   -0.96163E-06  1468   0.342E-03    0.736E-03
RMM:   9    -0.117469542511E+04    0.90520E-07   -0.19172E-06  1025   0.205E-03
   3 F= -.11817506E+04 E0= -.11817506E+04  d E =-.308769E-03  mag=     1.0000
