       N       E                     dE             d eps       ncg     rms          rms(c)
DAV:   1     0.495558778980E+04    0.49556E+04   -0.17150E+05  1836   0.914E+02
DAV:   2    -0.420454431911E+02   -0.49976E+04   -0.45639E+04  2520   0.209E+02
DAV:   3    -0.118959452427E+04   -0.11475E+04   -0.11420E+04  2124   0.111E+02
DAV:   4    -0.123586315539E+04   -0.46269E+02   -0.46031E+02  2016   0.291E+01
DAV:   5    -0.123706193868E+04   -0.11988E+01   -0.11962E+01  2376   0.431E+00    0.658E+01
RMM:   6    -0.121865104587E+04    0.18411E+02   -0.23816E+01  1584   0.476E+00    0.532E+01
RMM:   7    -0.120128012407E+04    0.17371E+02   -0.11849E+01  1584   0.388E+00    0.416E+01
RMM:   8    -0.117477796905E+04    0.26502E+02   -0.44061E+01  1584   0.757E+00    0.310E+01
RMM:   9    -0.117269064930E+04    0.20873E+01   -0.18642E+00  1616   0.168E+00    0.244E+01
RMM:  10    -0.117321675052E+04   -0.52610E+00   -0.41668E+01  1584   0.688E+00    0.135E+01
RMM:  11    -0.117280857738E+04    0.40817E+00   -0.22967E+00  1596   0.179E+00    0.105E+01
RMM:  12    -0.117078592470E+04    0.20227E+01   -0.13542E+00  1584   0.111E+00    0.773E+00
RMM:  13    -0.116939221961E+04    0.13937E+01   -0.15635E+00  1584   0.110E+00    0.416E+00
RMM:  14    -0.116900749150E+04    0.38473E+00   -0.31484E-01  1586   0.507E-01    0.328E+00
RMM:  15    -0.116859505693E+04    0.41243E+00   -0.18043E-01  1585   0.353E-01    0.249E+00
RMM:  16    -0.116836300161E+04    0.23206E+00   -0.13920E-01  1587   0.264E-01    0.153E+00
RMM:  17    -0.116832960906E+04    0.33393E-01   -0.23967E-02  1609   0.109E-01    0.132E+00
RMM:  18    -0.116832654788E+04    0.30612E-02   -0.11322E-02  1584   0.103E-01    0.107E+00
RMM:  19    -0.116830330432E+04    0.23244E-01   -0.14698E-02  1584   0.112E-01    0.705E-01
RMM:  20    -0.116829893652E+04    0.43678E-02   -0.22137E-03  1314   0.340E-02    0.584E-01
RMM:  21    -0.116829100559E+04    0.79309E-02   -0.41862E-03  1527   0.501E-02    0.316E-01
RMM:  22    -0.116829045690E+04    0.54870E-03   -0.68386E-04  1160   0.197E-02    0.254E-01
RMM:  23    -0.116828864916E+04    0.18077E-02   -0.14064E-03  1268   0.267E-02    0.138E-01
RMM:  24    -0.116828862353E+04    0.25637E-04   -0.22511E-04  1067   0.130E-02
   1 F= -.11756191E+04 E0= -.11756191E+04  d E =-.117562E+04  mag=    -0.0042
       N       E                     dE             d eps       ncg     rms          rms(c)
DAV:   1    -0.116828071630E+04    0.79329E-02   -0.20596E+00  1584   0.207E+00    0.585E-01
RMM:   2    -0.116828468648E+04   -0.39702E-02   -0.47193E-02  1586   0.280E-01    0.500E-01
RMM:   3    -0.116828436973E+04    0.31675E-03   -0.29621E-03  1643   0.598E-02    0.431E-01
RMM:   4    -0.116828383987E+04    0.52987E-03   -0.39469E-03  1584   0.700E-02    0.170E-01
RMM:   5    -0.116828387765E+04   -0.37788E-04   -0.37610E-04  1225   0.235E-02
   2 F= -.11756151E+04 E0= -.11756151E+04  d E =0.398806E-02  mag=    -0.0007
       N       E                     dE             d eps       ncg     rms          rms(c)
DAV:   1    -0.116828988208E+04   -0.60422E-02   -0.80678E-01  1656   0.129E+00    0.379E-01
RMM:   2    -0.116829114924E+04   -0.12672E-02   -0.15795E-02  1586   0.165E-01    0.311E-01
RMM:   3    -0.116829091387E+04    0.23537E-03   -0.98407E-04  1366   0.355E-02    0.252E-01
RMM:   4    -0.116829070738E+04    0.20648E-03   -0.20585E-03  1573   0.507E-02    0.885E-02
RMM:   5    -0.116829068465E+04    0.22737E-04   -0.91548E-05  1032   0.128E-02
   3 F= -.11756215E+04 E0= -.11756215E+04  d E =-.234694E-02  mag=    -0.0002
       N       E                     dE             d eps       ncg     rms          rms(c)
DAV:   1    -0.116829218824E+04   -0.14809E-02   -0.64505E-01  1692   0.119E+00    0.381E-01
RMM:   2    -0.116829202441E+04    0.16382E-03   -0.12541E-02  1584   0.152E-01    0.297E-01
RMM:   3    -0.116829174114E+04    0.28327E-03   -0.67590E-04  1298   0.326E-02    0.260E-01
RMM:   4    -0.116829093912E+04    0.80202E-03   -0.29540E-03  1584   0.582E-02    0.782E-02
RMM:   5    -0.116829093913E+04   -0.10143E-07   -0.32084E-04  1190   0.216E-02
   4 F= -.11756220E+04 E0= -.11756220E+04  d E =-.496002E-03  mag=     0.0000
       N       E                     dE             d eps       ncg     rms          rms(c)
DAV:   1    -0.116829209731E+04   -0.11582E-02   -0.12424E-01  1728   0.522E-01    0.154E-01
RMM:   2    -0.116829200078E+04    0.96533E-04   -0.22316E-03  1568   0.642E-02    0.122E-01
RMM:   3    -0.116829192363E+04    0.77142E-04   -0.11457E-04  1022   0.144E-02
   5 F= -.11756228E+04 E0= -.11756228E+04  d E =-.137458E-02  mag=    -0.0000
       N       E                     dE             d eps       ncg     rms          rms(c)
DAV:   1    -0.116829206483E+04   -0.64056E-04   -0.26014E-01  1728   0.777E-01    0.241E-01
RMM:   2    -0.116829187380E+04    0.19103E-03   -0.59494E-03  1584   0.111E-01    0.182E-01
RMM:   3    -0.116829167156E+04    0.20224E-03   -0.27897E-04  1140   0.219E-02    0.162E-01
RMM:   4    -0.116829106463E+04    0.60693E-03   -0.19968E-03  1584   0.489E-02    0.560E-02
RMM:   5    -0.116829106377E+04    0.86366E-06   -0.21259E-04  1108   0.184E-02
   6 F= -.11756220E+04 E0= -.11756220E+04  d E =0.880357E-03  mag=    -0.0000
       N       E                     dE             d eps       ncg     rms          rms(c)
DAV:   1    -0.116829246108E+04   -0.13965E-02   -0.12183E-01  1728   0.529E-01    0.154E-01
RMM:   2    -0.116829235075E+04    0.11034E-03   -0.25229E-03  1584   0.714E-02    0.103E-01
RMM:   3    -0.116829225786E+04    0.92891E-04   -0.11438E-04  1026   0.144E-02
   7 F= -.11756232E+04 E0= -.11756232E+04  d E =-.326512E-03  mag=     0.0000
