       N       E                     dE             d eps       ncg     rms          rms(c)
DAV:   1     0.488880832746E+04    0.48888E+04   -0.17816E+05  1856   0.957E+02
DAV:   2    -0.382635410198E+02   -0.49271E+04   -0.45112E+04  2496   0.213E+02
DAV:   3    -0.119873409755E+04   -0.11605E+04   -0.11552E+04  1984   0.113E+02
DAV:   4    -0.124759342875E+04   -0.48859E+02   -0.48524E+02  1952   0.305E+01
DAV:   5    -0.124881474537E+04   -0.12213E+01   -0.12177E+01  2304   0.443E+00    0.713E+01
RMM:   6    -0.123350675791E+04    0.15308E+02   -0.94359E+00  1619   0.371E+00    0.543E+01
RMM:   7    -0.120187126847E+04    0.31635E+02   -0.47617E+01  1560   0.833E+00    0.327E+01
RMM:   8    -0.118686302628E+04    0.15008E+02   -0.24802E+01  1546   0.663E+00    0.236E+01
RMM:   9    -0.118198698156E+04    0.48760E+01   -0.17661E+01  1549   0.562E+00    0.149E+01
RMM:  10    -0.118366927821E+04   -0.16823E+01   -0.89243E+00  1579   0.407E+00    0.849E+00
RMM:  11    -0.118297257714E+04    0.69670E+00   -0.13868E+00  1622   0.176E+00    0.523E+00
RMM:  12    -0.118267731543E+04    0.29526E+00   -0.74705E-01  1576   0.117E+00    0.217E+00
RMM:  13    -0.118268227933E+04   -0.49639E-02   -0.33017E-01  1554   0.797E-01    0.102E+00
RMM:  14    -0.118269672313E+04   -0.14444E-01   -0.62592E-02  1737   0.384E-01    0.570E-01
RMM:  15    -0.118270019540E+04   -0.34723E-02   -0.36141E-02  1609   0.265E-01    0.310E-01
RMM:  16    -0.118270054650E+04   -0.35110E-03   -0.62356E-03  1612   0.120E-01    0.222E-01
RMM:  17    -0.118270102078E+04   -0.47428E-03   -0.62488E-03  1575   0.104E-01    0.160E-01
RMM:  18    -0.118270093616E+04    0.84625E-04   -0.18903E-03  1696   0.591E-02    0.840E-02
RMM:  19    -0.118270098790E+04   -0.51744E-04   -0.52273E-04  1727   0.324E-02    0.655E-02
RMM:  20    -0.118270106584E+04   -0.77941E-04   -0.21184E-04  1835   0.188E-02    0.345E-02
RMM:  21    -0.118270108221E+04   -0.16363E-04   -0.59380E-05  1885   0.103E-02    0.245E-02
RMM:  22    -0.118270108601E+04   -0.38034E-05   -0.21148E-05  1587   0.600E-03    0.129E-02
RMM:  23    -0.118270108585E+04    0.16240E-06   -0.10327E-05  1547   0.437E-03    0.109E-02
RMM:  24    -0.118270108583E+04    0.17830E-07   -0.42457E-06  1284   0.286E-03
   1 F= -.11899173E+04 E0= -.11899170E+04  d E =-.118992E+04  mag=     1.9969
       N       E                     dE             d eps       ncg     rms          rms(c)
DAV:   1    -0.118269933439E+04    0.17515E-02   -0.39941E-01  1536   0.108E+00    0.190E-01
RMM:   2    -0.118270019773E+04   -0.86334E-03   -0.11458E-02  1696   0.175E-01    0.173E-01
RMM:   3    -0.118270016851E+04    0.29224E-04   -0.25992E-03  1874   0.761E-02    0.146E-01
RMM:   4    -0.118269988907E+04    0.27944E-03   -0.17250E-03  1563   0.550E-02    0.578E-02
RMM:   5    -0.118269992465E+04   -0.35586E-04   -0.39829E-04  1817   0.286E-02    0.460E-02
RMM:   6    -0.118269988280E+04    0.41854E-04   -0.74269E-05  1578   0.116E-02    0.270E-02
RMM:   7    -0.118269988249E+04    0.30268E-06   -0.42359E-05  1623   0.802E-03    0.143E-02
RMM:   8    -0.118269988009E+04    0.24005E-05   -0.22143E-05  1617   0.594E-03    0.783E-03
RMM:   9    -0.118269987982E+04    0.27255E-06   -0.10616E-05  1626   0.425E-03    0.487E-03
RMM:  10    -0.118269987926E+04    0.56619E-06   -0.18248E-06  1014   0.197E-03
   2 F= -.11899170E+04 E0= -.11899167E+04  d E =0.373153E-03  mag=     1.9949
       N       E                     dE             d eps       ncg     rms          rms(c)
DAV:   1    -0.118270139966E+04   -0.15198E-02   -0.12171E-01  1568   0.593E-01    0.106E-01
RMM:   2    -0.118270159428E+04   -0.19462E-03   -0.28614E-03  1670   0.931E-02    0.956E-02
RMM:   3    -0.118270154665E+04    0.47632E-04   -0.58850E-04  1651   0.394E-02    0.765E-02
RMM:   4    -0.118270147255E+04    0.74098E-04   -0.53650E-04  1559   0.306E-02    0.304E-02
RMM:   5    -0.118270147629E+04   -0.37419E-05   -0.96926E-05  1934   0.145E-02    0.237E-02
RMM:   6    -0.118270146656E+04    0.97289E-05   -0.17443E-05  1581   0.565E-03    0.144E-02
RMM:   7    -0.118270146540E+04    0.11636E-05   -0.10484E-05  1592   0.400E-03    0.752E-03
RMM:   8    -0.118270146479E+04    0.60261E-06   -0.81931E-06  1552   0.344E-03
   3 F= -.11899181E+04 E0= -.11899178E+04  d E =-.752074E-03  mag=     1.9948
