       N       E                     dE             d eps       ncg     rms          rms(c)
DAV:   1     0.466999506380E+04    0.46700E+04   -0.17342E+05  1764   0.991E+02
DAV:   2    -0.286624444521E+02   -0.46987E+04   -0.43171E+04  2268   0.217E+02
DAV:   3    -0.117555419974E+04   -0.11469E+04   -0.11403E+04  1872   0.117E+02
DAV:   4    -0.122550445584E+04   -0.49950E+02   -0.49580E+02  1872   0.321E+01
DAV:   5    -0.122668407280E+04   -0.11796E+01   -0.11747E+01  1980   0.466E+00    0.650E+01
RMM:   6    -0.121324709062E+04    0.13437E+02   -0.26778E+01  1441   0.542E+00    0.513E+01
RMM:   7    -0.119735499640E+04    0.15892E+02   -0.84624E+00  1440   0.374E+00    0.413E+01
RMM:   8    -0.116712389390E+04    0.30231E+02   -0.53527E+01  1440   0.911E+00    0.243E+01
RMM:   9    -0.116268657807E+04    0.44373E+01   -0.36378E+01  1440   0.743E+00    0.114E+01
RMM:  10    -0.116372983180E+04   -0.10433E+01   -0.26387E+00  1456   0.217E+00    0.850E+00
RMM:  11    -0.116275337482E+04    0.97646E+00   -0.16167E+00  1440   0.126E+00    0.533E+00
RMM:  12    -0.116231891192E+04    0.43446E+00   -0.87574E-01  1440   0.114E+00    0.187E+00
RMM:  13    -0.116229045755E+04    0.28454E-01   -0.25924E-01  1440   0.638E-01    0.594E-01
RMM:  14    -0.116228918747E+04    0.12701E-02   -0.23665E-02  1457   0.199E-01    0.295E-01
RMM:  15    -0.116228934145E+04   -0.15398E-03   -0.70560E-03  1444   0.104E-01    0.239E-01
RMM:  16    -0.116228932934E+04    0.12115E-04   -0.21616E-03  1415   0.557E-02    0.149E-01
RMM:  17    -0.116228928243E+04    0.46906E-04   -0.14751E-03  1435   0.481E-02    0.797E-02
RMM:  18    -0.116228937488E+04   -0.92448E-04   -0.43121E-04  1167   0.277E-02
   1 F= -.11693358E+04 E0= -.11693301E+04  d E =-.116934E+04  mag=    -0.8290
       N       E                     dE             d eps       ncg     rms          rms(c)
DAV:   1    -0.116228624716E+04    0.30353E-02   -0.18627E+00  1620   0.217E+00    0.558E-01
RMM:   2    -0.116228947669E+04   -0.32295E-02   -0.42656E-02  1442   0.309E-01    0.564E-01
RMM:   3    -0.116228943064E+04    0.46041E-04   -0.29575E-03  1495   0.651E-02    0.551E-01
RMM:   4    -0.116228797117E+04    0.14595E-02   -0.14658E-03  1445   0.491E-02    0.394E-01
RMM:   5    -0.116228744110E+04    0.53007E-03   -0.77304E-03  1440   0.107E-01    0.119E-01
RMM:   6    -0.116228725915E+04    0.18195E-03   -0.29173E-04   989   0.240E-02    0.100E-01
RMM:   7    -0.116228705975E+04    0.19939E-03   -0.30551E-04  1017   0.212E-02    0.673E-02
RMM:   8    -0.116228704447E+04    0.15284E-04   -0.16313E-04   884   0.171E-02
   2 F= -.11693340E+04 E0= -.11693284E+04  d E =0.179367E-02  mag=    -0.8280
       N       E                     dE             d eps       ncg     rms          rms(c)
DAV:   1    -0.116229181966E+04   -0.47599E-02   -0.56795E-01  1584   0.120E+00    0.305E-01
RMM:   2    -0.116229248272E+04   -0.66307E-03   -0.10502E-02  1440   0.161E-01    0.309E-01
RMM:   3    -0.116229243939E+04    0.43336E-04   -0.59965E-04  1082   0.312E-02
   3 F= -.11693391E+04 E0= -.11693335E+04  d E =-.330525E-02  mag=    -0.8272
       N       E                     dE             d eps       ncg     rms          rms(c)
DAV:   1    -0.116229268812E+04   -0.20539E-03   -0.66922E-01  1512   0.141E+00    0.434E-01
RMM:   2    -0.116229254667E+04    0.14145E-03   -0.16724E-02  1440   0.216E-01    0.407E-01
RMM:   3    -0.116229030342E+04    0.22432E-02   -0.16138E-03  1444   0.548E-02    0.325E-01
RMM:   4    -0.116228797887E+04    0.23245E-02   -0.11977E-02  1440   0.130E-01    0.112E-01
RMM:   5    -0.116228775975E+04    0.21912E-03   -0.39046E-04  1090   0.274E-02    0.689E-02
RMM:   6    -0.116228771874E+04    0.41015E-04   -0.25625E-04   974   0.188E-02
   4 F= -.11693335E+04 E0= -.11693279E+04  d E =0.558094E-02  mag=    -0.8238
       N       E                     dE             d eps       ncg     rms          rms(c)
DAV:   1    -0.116229380373E+04   -0.60440E-02   -0.41692E-01  1584   0.111E+00    0.225E-01
RMM:   2    -0.116229413144E+04   -0.32772E-03   -0.10946E-02  1440   0.174E-01    0.209E-01
RMM:   3    -0.116229353171E+04    0.59973E-03   -0.54167E-04  1143   0.346E-02    0.183E-01
RMM:   4    -0.116229223053E+04    0.13012E-02   -0.55906E-03  1440   0.889E-02    0.588E-02
RMM:   5    -0.116229219530E+04    0.35223E-04   -0.10573E-04   911   0.172E-02
   5 F= -.11693386E+04 E0= -.11693330E+04  d E =0.433846E-03  mag=    -0.8252
