       N       E                     dE             d eps       ncg     rms          rms(c)
DAV:   1     0.490670380016E+04    0.49067E+04   -0.17074E+05  1836   0.910E+02
DAV:   2    -0.483949798656E+02   -0.49551E+04   -0.45168E+04  2520   0.208E+02
DAV:   3    -0.118215728233E+04   -0.11338E+04   -0.11277E+04  2160   0.110E+02
DAV:   4    -0.122733392238E+04   -0.45177E+02   -0.44941E+02  2052   0.284E+01
DAV:   5    -0.122846507591E+04   -0.11312E+01   -0.11288E+01  2376   0.413E+00    0.648E+01
RMM:   6    -0.121038001436E+04    0.18085E+02   -0.21910E+01  1584   0.492E+00    0.516E+01
RMM:   7    -0.119794206303E+04    0.12438E+02   -0.91236E+00  1584   0.346E+00    0.467E+01
RMM:   8    -0.118754091653E+04    0.10401E+02   -0.79980E+00  1584   0.284E+00    0.382E+01
RMM:   9    -0.116500731269E+04    0.22534E+02   -0.41556E+01  1584   0.732E+00    0.241E+01
RMM:  10    -0.116101663523E+04    0.39907E+01   -0.17661E+01  1584   0.472E+00    0.124E+01
RMM:  11    -0.116142828920E+04   -0.41165E+00   -0.37492E+00  1596   0.213E+00    0.119E+01
RMM:  12    -0.116137230649E+04    0.55983E-01   -0.16317E-01  1751   0.501E-01    0.124E+01
RMM:  13    -0.116132569777E+04    0.46609E-01   -0.11775E-02  1717   0.118E-01    0.124E+01
RMM:  14    -0.116156796761E+04   -0.24227E+00   -0.22111E-02  1584   0.137E-01    0.121E+01
RMM:  15    -0.116226659972E+04   -0.69863E+00   -0.40205E-01  1584   0.411E-01    0.144E+01
RMM:  16    -0.116346585068E+04   -0.11993E+01   -0.98172E-01  1586   0.645E-01    0.136E+01
RMM:  17    -0.115597594344E+04    0.74899E+01   -0.21302E+01  1599   0.334E+00    0.202E+01
RMM:  18    -0.115794019274E+04   -0.19642E+01   -0.77479E-01  1650   0.429E-01    0.189E+01
RMM:  19    -0.115587260830E+04    0.20676E+01   -0.84610E-01  1494   0.526E-01    0.200E+01
RMM:  20    -0.115160984289E+04    0.42628E+01   -0.14994E+00  1551   0.799E-01    0.216E+01
RMM:  21    -0.115132428377E+04    0.28556E+00   -0.65851E-01  1584   0.620E-01    0.213E+01
RMM:  22    -0.115136133244E+04   -0.37049E-01   -0.16086E-01  1362   0.242E-01    0.212E+01
RMM:  23    -0.115533914478E+04   -0.39778E+01   -0.89248E-01  1584   0.642E-01    0.201E+01
RMM:  24    -0.115517046535E+04    0.16868E+00   -0.25749E+01  1585   0.234E+00    0.170E+01
RMM:  25    -0.115332216877E+04    0.18483E+01   -0.55476E+00  1623   0.116E+00    0.155E+01
RMM:  26    -0.114795410504E+04    0.53681E+01   -0.24267E+00  1628   0.938E-01    0.172E+01
RMM:  27    -0.113628181373E+04    0.11672E+02   -0.59974E+00  1585   0.138E+00    0.188E+01
RMM:  28    -0.113514486835E+04    0.11369E+01   -0.37412E-01  1596   0.414E-01    0.196E+01
RMM:  29    -0.116219335927E+04   -0.27048E+02   -0.37263E+01  1650   0.264E+00    0.152E+01
RMM:  30    -0.117554850985E+04   -0.13355E+02   -0.54928E+00  1586   0.161E+00    0.362E+01
RMM:  31    -0.118036303544E+04   -0.48145E+01   -0.10788E+01  1615   0.147E+00    0.429E+01
RMM:  32    -0.117781132147E+04    0.25517E+01   -0.36613E-01  1685   0.338E-01    0.417E+01
RMM:  33    -0.117269654180E+04    0.51148E+01   -0.17260E-01  1590   0.275E-01    0.413E+01
RMM:  34    -0.115757048317E+04    0.15126E+02   -0.45014E+01  1641   0.316E+00    0.175E+01
RMM:  35    -0.115990046904E+04   -0.23300E+01   -0.13593E+01  1656   0.131E+00    0.169E+01
RMM:  36    -0.115763834875E+04    0.22621E+01   -0.46180E+00  1588   0.132E+00    0.190E+01
RMM:  37    -0.115694897154E+04    0.68938E+00   -0.81372E-01  1587   0.598E-01    0.214E+01
RMM:  38    -0.115891499356E+04   -0.19660E+01   -0.10749E+01  1589   0.199E+00    0.144E+01
RMM:  39    -0.115721896895E+04    0.16960E+01   -0.26030E+00  1586   0.112E+00    0.143E+01
RMM:  40    -0.115724609681E+04   -0.27128E-01   -0.88364E-02  1498   0.181E-01    0.141E+01
RMM:  41    -0.115506372057E+04    0.21824E+01   -0.12926E+00  1510   0.668E-01    0.126E+01
RMM:  42    -0.115783282623E+04   -0.27691E+01   -0.96406E-01  1584   0.693E-01    0.155E+01
RMM:  43    -0.115950424859E+04   -0.16714E+01   -0.12843E+00  1589   0.708E-01    0.151E+01
RMM:  44    -0.115804165521E+04    0.14626E+01   -0.49909E-01  1577   0.513E-01    0.157E+01
RMM:  45    -0.115852382924E+04   -0.48217E+00   -0.11217E-01  1395   0.215E-01    0.157E+01
RMM:  46    -0.115816597455E+04    0.35785E+00   -0.63163E-01  1595   0.613E-01    0.146E+01
RMM:  47    -0.115771481918E+04    0.45116E+00   -0.70232E-01  1589   0.601E-01    0.122E+01
RMM:  48    -0.115808858821E+04   -0.37377E+00   -0.61327E-02  1617   0.190E-01    0.129E+01
RMM:  49    -0.115953016368E+04   -0.14416E+01   -0.15505E+00  1587   0.831E-01    0.119E+01
RMM:  50    -0.115947686623E+04    0.53297E-01   -0.87127E-01  1585   0.528E-01    0.117E+01
RMM:  51    -0.116044262076E+04   -0.96575E+00   -0.36317E+00  1584   0.129E+00    0.961E+00
RMM:  52    -0.115998362934E+04    0.45899E+00   -0.63437E-01  1590   0.620E-01    0.848E+00
RMM:  53    -0.116025479205E+04   -0.27116E+00   -0.21130E-01  1594   0.315E-01    0.844E+00
RMM:  54    -0.116004846266E+04    0.20633E+00   -0.45264E-02  1480   0.154E-01    0.799E+00
RMM:  55    -0.116010238686E+04   -0.53924E-01   -0.88289E-03  1265   0.675E-02    0.793E+00
RMM:  56    -0.116402667683E+04   -0.39243E+01   -0.38563E+00  1584   0.119E+00    0.153E+01
RMM:  57    -0.116311586080E+04    0.91082E+00   -0.10970E-01  1581   0.251E-01    0.154E+01
RMM:  58    -0.116279222428E+04    0.32364E+00   -0.14646E-01  1562   0.262E-01    0.146E+01
RMM:  59    -0.116145598266E+04    0.13362E+01   -0.89093E-01  1585   0.572E-01    0.119E+01
RMM:  60    -0.116177086925E+04   -0.31489E+00   -0.70598E-02  1595   0.184E-01    0.114E+01
RMM:  61    -0.116270859256E+04   -0.93772E+00   -0.48467E-01  1589   0.477E-01    0.116E+01
RMM:  62    -0.116254637794E+04    0.16221E+00   -0.91220E-03  1402   0.684E-02    0.115E+01
RMM:  63    -0.116264348869E+04   -0.97111E-01   -0.22529E-03  1199   0.324E-02    0.116E+01
RMM:  64    -0.116295741394E+04   -0.31393E+00   -0.59446E-02  1574   0.177E-01    0.122E+01
RMM:  65    -0.116363685946E+04   -0.67945E+00   -0.25653E-01  1589   0.373E-01    0.134E+01
RMM:  66    -0.116287878738E+04    0.75807E+00   -0.13532E-01  1591   0.248E-01    0.134E+01
RMM:  67    -0.116284399253E+04    0.34795E-01   -0.95838E-02  1590   0.237E-01    0.133E+01
RMM:  68    -0.116295619042E+04   -0.11220E+00   -0.20397E-02  1570   0.119E-01    0.132E+01
RMM:  69    -0.116296008017E+04   -0.38897E-02   -0.74008E-04  1175   0.214E-02    0.132E+01
RMM:  70    -0.116305419170E+04   -0.94112E-01   -0.35817E-03  1362   0.494E-02    0.132E+01
RMM:  71    -0.116357848034E+04   -0.52429E+00   -0.22389E-01  1588   0.391E-01    0.138E+01
RMM:  72    -0.116340602867E+04    0.17245E+00   -0.59951E-03  1494   0.674E-02    0.137E+01
RMM:  73    -0.116255581706E+04    0.85021E+00   -0.13727E-01  1584   0.238E-01    0.125E+01
RMM:  74    -0.116179722964E+04    0.75859E+00   -0.26507E-01  1587   0.322E-01    0.107E+01
RMM:  75    -0.116128340194E+04    0.51383E+00   -0.10777E-01  1575   0.165E-01    0.920E+00
RMM:  76    -0.116086627306E+04    0.41713E+00   -0.38994E-01  1594   0.416E-01    0.555E+00
RMM:  77    -0.116092008904E+04   -0.53816E-01   -0.27450E-02  1595   0.142E-01    0.555E+00
RMM:  78    -0.116091179008E+04    0.82990E-02   -0.15561E-02  1571   0.103E-01    0.544E+00
RMM:  79    -0.116103850062E+04   -0.12671E+00   -0.98968E-02  1585   0.190E-01    0.630E+00
RMM:  80    -0.116097932662E+04    0.59174E-01   -0.88365E-03  1520   0.759E-02    0.557E+00
RMM:  81    -0.116257791241E+04   -0.15986E+01   -0.17872E+00  1586   0.631E-01    0.130E+01
RMM:  82    -0.116106268560E+04    0.15152E+01   -0.25016E-01  1584   0.318E-01    0.614E+00
RMM:  83    -0.116107823064E+04   -0.15545E-01   -0.63797E-03  1353   0.676E-02    0.604E+00
RMM:  84    -0.116198979321E+04   -0.91156E+00   -0.23331E-01  1584   0.222E-01    0.111E+01
RMM:  85    -0.116174989840E+04    0.23989E+00   -0.16753E-02  1583   0.963E-02    0.105E+01
RMM:  86    -0.116188804946E+04   -0.13815E+00   -0.70227E-03  1522   0.616E-02    0.109E+01
RMM:  87    -0.116127282342E+04    0.61523E+00   -0.12136E-01  1587   0.201E-01    0.778E+00
RMM:  88    -0.116144314408E+04   -0.17032E+00   -0.42234E-02  1590   0.166E-01    0.863E+00
RMM:  89    -0.116165041996E+04   -0.20728E+00   -0.43002E-02  1576   0.122E-01    0.970E+00
RMM:  90    -0.116125829668E+04    0.39212E+00   -0.34781E-02  1576   0.107E-01    0.786E+00
RMM:  91    -0.116092799876E+04    0.33030E+00   -0.11643E-01  1579   0.162E-01    0.513E+00
RMM:  92    -0.116092051915E+04    0.74796E-02   -0.14749E-02  1368   0.673E-02    0.470E+00
RMM:  93    -0.116093258313E+04   -0.12064E-01   -0.11933E-02  1570   0.889E-02    0.463E+00
RMM:  94    -0.116087016731E+04    0.62416E-01   -0.48094E-02  1585   0.137E-01    0.339E+00
RMM:  95    -0.116085673483E+04    0.13432E-01   -0.21459E-02  1531   0.846E-02    0.281E+00
RMM:  96    -0.116088717777E+04   -0.30443E-01   -0.15240E-02  1577   0.875E-02    0.354E+00
RMM:  97    -0.116087973975E+04    0.74380E-02   -0.54377E-03  1448   0.597E-02    0.315E+00
RMM:  98    -0.116086700899E+04    0.12731E-01   -0.10493E-02  1497   0.659E-02    0.280E+00
RMM:  99    -0.116087101862E+04   -0.40096E-02   -0.15154E-02  1558   0.874E-02    0.265E+00
RMM: 100    -0.116087411561E+04   -0.30970E-02   -0.77045E-03  1375   0.510E-02
   1 F= -.11680051E+04 E0= -.11680051E+04  d E =-.116801E+04  mag=    -1.3652
       N       E                     dE             d eps       ncg     rms          rms(c)
DAV:   1    -0.116087084266E+04    0.17596E-03   -0.34439E+00  1728   0.259E+00    0.262E+00
RMM:   2    -0.116085960519E+04    0.11237E-01   -0.95988E-02  1587   0.393E-01    0.198E+00
RMM:   3    -0.116086297476E+04   -0.33696E-02   -0.45399E-02  1610   0.194E-01    0.142E+00
RMM:   4    -0.116086313567E+04   -0.16091E-03   -0.26670E-02  1615   0.148E-01    0.856E-01
RMM:   5    -0.116086168033E+04    0.14553E-02   -0.70417E-03  1592   0.846E-02    0.539E-01
RMM:   6    -0.116086125503E+04    0.42530E-03   -0.48866E-03  1578   0.677E-02    0.291E-01
RMM:   7    -0.116086135594E+04   -0.10091E-03   -0.12366E-03  1401   0.348E-02    0.195E-01
RMM:   8    -0.116086128063E+04    0.75308E-04   -0.41120E-04  1120   0.206E-02
   2 F= -.11679933E+04 E0= -.11679933E+04  d E =0.118360E-01  mag=    -2.0015
       N       E                     dE             d eps       ncg     rms          rms(c)
DAV:   1    -0.116087801459E+04   -0.16659E-01   -0.16478E+00  1800   0.180E+00    0.433E-01
RMM:   2    -0.116088027803E+04   -0.22634E-02   -0.29405E-02  1586   0.250E-01    0.392E-01
RMM:   3    -0.116087991733E+04    0.36070E-03   -0.15284E-03  1509   0.476E-02    0.350E-01
RMM:   4    -0.116087925769E+04    0.65964E-03   -0.20951E-03  1582   0.522E-02    0.222E-01
RMM:   5    -0.116087922343E+04    0.34257E-04   -0.11639E-03  1540   0.385E-02    0.124E-01
RMM:   6    -0.116087923633E+04   -0.12896E-04   -0.15088E-04  1043   0.149E-02
   3 F= -.11680105E+04 E0= -.11680105E+04  d E =-.542648E-02  mag=    -2.0001
       N       E                     dE             d eps       ncg     rms          rms(c)
DAV:   1    -0.116087882777E+04    0.39566E-03   -0.11025E+00  1728   0.162E+00    0.364E-01
RMM:   2    -0.116088014268E+04   -0.13149E-02   -0.24695E-02  1584   0.236E-01    0.305E-01
RMM:   3    -0.116087915653E+04    0.98615E-03   -0.15681E-03  1621   0.491E-02    0.249E-01
RMM:   4    -0.116087824844E+04    0.90810E-03   -0.19333E-03  1576   0.473E-02    0.168E-01
RMM:   5    -0.116087799052E+04    0.25791E-03   -0.16722E-03  1584   0.444E-02    0.106E-01
RMM:   6    -0.116087794277E+04    0.47751E-04   -0.44835E-04  1308   0.256E-02
   4 F= -.11680089E+04 E0= -.11680089E+04  d E =0.157494E-02  mag=    -2.0000
       N       E                     dE             d eps       ncg     rms          rms(c)
DAV:   1    -0.116088201498E+04   -0.40245E-02   -0.33951E-01  1728   0.900E-01    0.197E-01
RMM:   2    -0.116088231602E+04   -0.30104E-03   -0.72866E-03  1584   0.127E-01    0.164E-01
RMM:   3    -0.116088194007E+04    0.37595E-03   -0.47208E-04  1267   0.276E-02    0.130E-01
RMM:   4    -0.116088159876E+04    0.34131E-03   -0.68873E-04  1523   0.293E-02    0.810E-02
RMM:   5    -0.116088149792E+04    0.10085E-03   -0.49118E-04  1405   0.248E-02    0.505E-02
RMM:   6    -0.116088148687E+04    0.11046E-04   -0.80030E-05  1001   0.123E-02
   5 F= -.11680126E+04 E0= -.11680126E+04  d E =-.212410E-02  mag=    -2.0000
       N       E                     dE             d eps       ncg     rms          rms(c)
DAV:   1    -0.116088316167E+04   -0.16637E-02   -0.58396E-01  1728   0.104E+00    0.294E-01
RMM:   2    -0.116088369370E+04   -0.53203E-03   -0.10367E-02  1584   0.130E-01    0.223E-01
RMM:   3    -0.116088335038E+04    0.34331E-03   -0.71421E-04  1340   0.321E-02    0.169E-01
RMM:   4    -0.116088300986E+04    0.34053E-03   -0.59242E-04  1486   0.284E-02    0.117E-01
RMM:   5    -0.116088284091E+04    0.16894E-03   -0.66705E-04  1533   0.285E-02    0.767E-02
RMM:   6    -0.116088284589E+04   -0.49794E-05   -0.18168E-04  1053   0.166E-02
   6 F= -.11680144E+04 E0= -.11680144E+04  d E =-.173781E-02  mag=    -2.0000
       N       E                     dE             d eps       ncg     rms          rms(c)
DAV:   1    -0.116088287963E+04   -0.38716E-04   -0.18433E-03  1728   0.590E-02    0.374E-02
RMM:   2    -0.116088287797E+04    0.16629E-05   -0.30713E-05   973   0.736E-03
   7 F= -.11680144E+04 E0= -.11680144E+04  d E =-.174866E-02  mag=    -2.0000
       N       E                     dE             d eps       ncg     rms          rms(c)
DAV:   1    -0.116088294796E+04   -0.68334E-04   -0.46888E-01  1656   0.872E-01    0.230E-01
RMM:   2    -0.116088382443E+04   -0.87647E-03   -0.86965E-03  1584   0.110E-01    0.172E-01
RMM:   3    -0.116088396010E+04   -0.13567E-03   -0.42955E-04  1157   0.256E-02    0.118E-01
RMM:   4    -0.116088394772E+04    0.12372E-04   -0.24917E-04  1089   0.201E-02
   8 F= -.11680157E+04 E0= -.11680157E+04  d E =-.133123E-02  mag=    -2.0000
       N       E                     dE             d eps       ncg     rms          rms(c)
DAV:   1    -0.116088374870E+04    0.21139E-03   -0.62998E-02  1728   0.318E-01    0.107E-01
RMM:   2    -0.116088381497E+04   -0.66264E-04   -0.10881E-03  1308   0.389E-02    0.882E-02
RMM:   3    -0.116088382854E+04   -0.13573E-04   -0.74984E-05  1017   0.122E-02
   9 F= -.11680157E+04 E0= -.11680157E+04  d E =-.130834E-02  mag=    -2.0000
       N       E                     dE             d eps       ncg     rms          rms(c)
DAV:   1    -0.116088398911E+04   -0.17414E-03   -0.24395E-01  1656   0.573E-01    0.180E-01
RMM:   2    -0.116088437679E+04   -0.38769E-03   -0.42153E-03  1569   0.687E-02    0.140E-01
RMM:   3    -0.116088453396E+04   -0.15717E-03   -0.20820E-04  1058   0.177E-02    0.934E-02
RMM:   4    -0.116088456398E+04   -0.30021E-04   -0.11889E-04  1014   0.137E-02
  10 F= -.11680166E+04 E0= -.11680166E+04  d E =-.862873E-03  mag=    -2.0000
       N       E                     dE             d eps       ncg     rms          rms(c)
DAV:   1    -0.116087895881E+04    0.55751E-02   -0.21947E+00  1584   0.172E+00    0.504E-01
RMM:   2    -0.116088294359E+04   -0.39848E-02   -0.39102E-02  1584   0.207E-01    0.368E-01
RMM:   3    -0.116088435595E+04   -0.14124E-02   -0.18379E-03  1474   0.499E-02    0.234E-01
RMM:   4    -0.116088463582E+04   -0.27988E-03   -0.73633E-04  1293   0.308E-02    0.155E-01
RMM:   5    -0.116088493451E+04   -0.29868E-03   -0.46803E-04  1243   0.260E-02    0.753E-02
RMM:   6    -0.116088502955E+04   -0.95049E-04   -0.11029E-04  1041   0.150E-02
  11 F= -.11680174E+04 E0= -.11680174E+04  d E =-.169920E-02  mag=    -2.0000
       N       E                     dE             d eps       ncg     rms          rms(c)
DAV:   1    -0.116088527231E+04   -0.33780E-03   -0.24692E-01  1656   0.555E-01    0.174E-01
RMM:   2    -0.116088577563E+04   -0.50332E-03   -0.44220E-03  1567   0.670E-02    0.124E-01
RMM:   3    -0.116088600638E+04   -0.23075E-03   -0.20072E-04  1040   0.170E-02    0.736E-02
RMM:   4    -0.116088605780E+04   -0.51423E-04   -0.67877E-05  1000   0.106E-02
  12 F= -.11680185E+04 E0= -.11680185E+04  d E =-.113139E-02  mag=    -2.0000
       N       E                     dE             d eps       ncg     rms          rms(c)
DAV:   1    -0.116088080588E+04    0.52005E-02   -0.22143E+00  1584   0.166E+00    0.509E-01
RMM:   2    -0.116088505952E+04   -0.42536E-02   -0.39481E-02  1584   0.199E-01    0.364E-01
RMM:   3    -0.116088686918E+04   -0.18097E-02   -0.17986E-03  1391   0.486E-02    0.218E-01
RMM:   4    -0.116088728151E+04   -0.41233E-03   -0.57972E-04  1173   0.275E-02    0.149E-01
RMM:   5    -0.116088773934E+04   -0.45782E-03   -0.42335E-04  1218   0.256E-02    0.575E-02
RMM:   6    -0.116088778829E+04   -0.48955E-04   -0.50425E-05  1022   0.110E-02
  13 F= -.11680206E+04 E0= -.11680206E+04  d E =-.316288E-02  mag=    -2.0000
       N       E                     dE             d eps       ncg     rms          rms(c)
DAV:   1    -0.116088891607E+04   -0.11767E-02   -0.20279E-01  1728   0.528E-01    0.167E-01
RMM:   2    -0.116088932897E+04   -0.41290E-03   -0.39604E-03  1581   0.669E-02    0.121E-01
RMM:   3    -0.116088945866E+04   -0.12970E-03   -0.19709E-04  1045   0.171E-02    0.770E-02
RMM:   4    -0.116088947089E+04   -0.12229E-04   -0.98300E-05  1004   0.127E-02
  14 F= -.11680223E+04 E0= -.11680223E+04  d E =-.170968E-02  mag=    -2.0000
       N       E                     dE             d eps       ncg     rms          rms(c)
DAV:   1    -0.116088637295E+04    0.30857E-02   -0.18148E+00  1584   0.158E+00    0.496E-01
RMM:   2    -0.116088952329E+04   -0.31503E-02   -0.34863E-02  1584   0.198E-01    0.363E-01
RMM:   3    -0.116089051068E+04   -0.98739E-03   -0.18854E-03  1613   0.506E-02    0.230E-01
RMM:   4    -0.116089062469E+04   -0.11401E-03   -0.74421E-04  1449   0.309E-02    0.161E-01
RMM:   5    -0.116089080467E+04   -0.17999E-03   -0.74229E-04  1550   0.306E-02    0.933E-02
RMM:   6    -0.116089088104E+04   -0.76367E-04   -0.15699E-04  1068   0.159E-02
  15 F= -.11680238E+04 E0= -.11680238E+04  d E =-.319899E-02  mag=    -2.0000
       N       E                     dE             d eps       ncg     rms          rms(c)
DAV:   1    -0.116089252128E+04   -0.17166E-02   -0.25894E-01  1656   0.826E-01    0.142E-01
RMM:   2    -0.116089300937E+04   -0.48809E-03   -0.62132E-03  1596   0.120E-01    0.129E-01
RMM:   3    -0.116089290159E+04    0.10778E-03   -0.28428E-04  1179   0.233E-02    0.110E-01
RMM:   4    -0.116089272872E+04    0.17287E-03   -0.12032E-03  1562   0.384E-02    0.521E-02
RMM:   5    -0.116089272243E+04    0.62863E-05   -0.35816E-05  1007   0.935E-03
  16 F= -.11680255E+04 E0= -.11680255E+04  d E =-.177117E-02  mag=    -2.0000
       N       E                     dE             d eps       ncg     rms          rms(c)
DAV:   1    -0.116089296599E+04   -0.23727E-03   -0.17749E-02  1728   0.216E-01    0.336E-02
RMM:   2    -0.116089299843E+04   -0.32434E-04   -0.42736E-04  1215   0.320E-02
  17 F= -.11680258E+04 E0= -.11680258E+04  d E =-.206412E-02  mag=    -2.0000
