       N       E                     dE             d eps       ncg     rms          rms(c)
DAV:   1     0.512825374098E+04    0.51283E+04   -0.17539E+05  1836   0.928E+02
DAV:   2    -0.977983352757E+00   -0.51292E+04   -0.47004E+04  2520   0.214E+02
DAV:   3    -0.118302146857E+04   -0.11820E+04   -0.11761E+04  2088   0.116E+02
DAV:   4    -0.124256896826E+04   -0.59547E+02   -0.59211E+02  2016   0.352E+01
DAV:   5    -0.124531283395E+04   -0.27439E+01   -0.27372E+01  2448   0.703E+00    0.618E+01
RMM:   6    -0.123279240829E+04    0.12520E+02   -0.72554E+00  1670   0.336E+00    0.504E+01
RMM:   7    -0.119093860012E+04    0.41854E+02   -0.65653E+01  1865   0.106E+01    0.292E+01
RMM:   8    -0.118016887235E+04    0.10770E+02   -0.40315E+01  1843   0.111E+01    0.135E+01
RMM:   9    -0.118143891321E+04   -0.12700E+01   -0.13594E+01  1773   0.778E+00    0.941E+00
RMM:  10    -0.118116636248E+04    0.27255E+00   -0.18306E+00  1922   0.308E+00    0.648E+00
RMM:  11    -0.118060778690E+04    0.55858E+00   -0.26918E+00  1725   0.198E+00    0.262E+00
RMM:  12    -0.118059231349E+04    0.15473E-01   -0.57337E-01  1753   0.233E+00    0.152E+00
RMM:  13    -0.118053093607E+04    0.61377E-01   -0.99505E-02  1933   0.459E-01    0.856E-01
RMM:  14    -0.118052337475E+04    0.75613E-02   -0.77726E-02  1741   0.395E-01    0.432E-01
RMM:  15    -0.118052164767E+04    0.17271E-02   -0.14825E-02  1736   0.340E-01    0.338E-01
RMM:  16    -0.118052216969E+04   -0.52201E-03   -0.55773E-03  1841   0.127E-01    0.254E-01
RMM:  17    -0.118052187168E+04    0.29801E-03   -0.23747E-03  1717   0.870E-02    0.131E-01
RMM:  18    -0.118052198458E+04   -0.11290E-03   -0.35084E-04  1241   0.679E-02    0.857E-02
RMM:  19    -0.118052201059E+04   -0.26010E-04   -0.26446E-04  1196   0.298E-02
   1 F= -.11876197E+04 E0= -.11876197E+04  d E =-.118762E+04  mag=    -0.0037
       N       E                     dE             d eps       ncg     rms          rms(c)
DAV:   1    -0.118052247056E+04   -0.48598E-03   -0.24024E-01  1656   0.750E-01    0.129E-01
RMM:   2    -0.118052280498E+04   -0.33442E-03   -0.62727E-03  1725   0.113E-01    0.117E-01
RMM:   3    -0.118052275225E+04    0.52723E-04   -0.84465E-04  1415   0.112E-01
   2 F= -.11876207E+04 E0= -.11876207E+04  d E =-.103273E-02  mag=     0.0007
       N       E                     dE             d eps       ncg     rms          rms(c)
DAV:   1    -0.118052242889E+04    0.37609E-03   -0.60305E-02  1728   0.377E-01    0.119E-01
RMM:   2    -0.118052236135E+04    0.67537E-04   -0.14040E-03  1493   0.567E-02    0.108E-01
RMM:   3    -0.118052232750E+04    0.33857E-04   -0.22357E-04  1075   0.522E-02
   3 F= -.11876205E+04 E0= -.11876205E+04  d E =-.759891E-03  mag=    -0.0005
