       N       E                     dE             d eps       ncg     rms          rms(c)
DAV:   1     0.462117822269E+04    0.46212E+04   -0.17512E+05  1888   0.932E+02
DAV:   2    -0.824623825059E+02   -0.47036E+04   -0.42702E+04  2432   0.211E+02
DAV:   3    -0.118301419030E+04   -0.11006E+04   -0.10947E+04  1984   0.110E+02
DAV:   4    -0.123089594567E+04   -0.47882E+02   -0.47555E+02  1952   0.322E+01
DAV:   5    -0.123234271297E+04   -0.14468E+01   -0.14417E+01  2272   0.506E+00    0.698E+01
RMM:   6    -0.121277134199E+04    0.19571E+02   -0.12459E+01  1599   0.452E+00    0.504E+01
RMM:   7    -0.119283398246E+04    0.19937E+02   -0.24345E+01  1553   0.592E+00    0.373E+01
RMM:   8    -0.117159355940E+04    0.21240E+02   -0.28031E+01  1565   0.723E+00    0.258E+01
RMM:   9    -0.116315412109E+04    0.84394E+01   -0.21448E+01  1591   0.636E+00    0.180E+01
RMM:  10    -0.116386130062E+04   -0.70718E+00   -0.12750E+01  1580   0.511E+00    0.871E+00
RMM:  11    -0.116434930773E+04   -0.48801E+00   -0.29916E+00  1860   0.279E+00    0.720E+00
RMM:  12    -0.116376283617E+04    0.58647E+00   -0.72122E-01  1537   0.126E+00    0.452E+00
RMM:  13    -0.116365467835E+04    0.10816E+00   -0.12225E+00  1543   0.141E+00    0.183E+00
RMM:  14    -0.116376929114E+04   -0.11461E+00   -0.17295E-01  1613   0.687E-01    0.122E+00
RMM:  15    -0.116382526508E+04   -0.55974E-01   -0.11303E-01  1630   0.437E-01    0.944E-01
RMM:  16    -0.116385294987E+04   -0.27685E-01   -0.41031E-02  1779   0.283E-01    0.722E-01
RMM:  17    -0.116386339449E+04   -0.10445E-01   -0.13437E-02  1792   0.147E-01    0.535E-01
RMM:  18    -0.116387052945E+04   -0.71350E-02   -0.11675E-02  1616   0.129E-01    0.382E-01
RMM:  19    -0.116387535125E+04   -0.48218E-02   -0.51657E-03  1699   0.942E-02    0.298E-01
RMM:  20    -0.116388031875E+04   -0.49675E-02   -0.24376E-03  1571   0.642E-02    0.273E-01
RMM:  21    -0.116388277153E+04   -0.24528E-02   -0.20395E-03  1725   0.606E-02    0.220E-01
RMM:  22    -0.116388469912E+04   -0.19276E-02   -0.88426E-04  1591   0.405E-02    0.185E-01
RMM:  23    -0.116388641922E+04   -0.17201E-02   -0.19583E-03  1713   0.588E-02    0.148E-01
RMM:  24    -0.116388774935E+04   -0.13301E-02   -0.57884E-04  1614   0.326E-02    0.131E-01
RMM:  25    -0.116388829923E+04   -0.54988E-03   -0.12464E-03  1739   0.451E-02    0.974E-02
RMM:  26    -0.116388929852E+04   -0.99930E-03   -0.27930E-04  1670   0.233E-02    0.732E-02
RMM:  27    -0.116388935468E+04   -0.56162E-04   -0.60170E-04  1744   0.317E-02    0.544E-02
RMM:  28    -0.116388983412E+04   -0.47944E-03   -0.13126E-04  1591   0.171E-02    0.410E-02
RMM:  29    -0.116388988341E+04   -0.49285E-04   -0.15977E-04  1739   0.165E-02    0.287E-02
RMM:  30    -0.116389006694E+04   -0.18353E-03   -0.40134E-05  1615   0.932E-03    0.216E-02
RMM:  31    -0.116389011097E+04   -0.44033E-04   -0.37020E-05  1608   0.807E-03    0.131E-02
RMM:  32    -0.116389013250E+04   -0.21529E-04   -0.74570E-06  1326   0.428E-03    0.951E-03
RMM:  33    -0.116389014476E+04   -0.12261E-04   -0.75868E-06  1326   0.463E-03    0.741E-03
RMM:  34    -0.116389015280E+04   -0.80377E-05   -0.18211E-06  1066   0.246E-03    0.535E-03
RMM:  35    -0.116389015087E+04    0.19313E-05   -0.17580E-06  1056   0.196E-03    0.375E-03
RMM:  36    -0.116389015377E+04   -0.29089E-05   -0.85519E-07  1027   0.157E-03    0.268E-03
RMM:  37    -0.116389015560E+04   -0.18295E-05   -0.35670E-07  1021   0.134E-03    0.203E-03
RMM:  38    -0.116389015596E+04   -0.35428E-06   -0.18301E-07  1002   0.797E-04
   1 F= -.11638902E+04 E0= -.11638902E+04  d E =-.116389E+04  mag=     2.0000
       N       E                     dE             d eps       ncg     rms          rms(c)
DAV:   1    -0.116385485047E+04    0.35305E-01   -0.82026E+00  1728   0.499E+00    0.896E-01
RMM:   2    -0.116387758973E+04   -0.22739E-01   -0.28128E-01  1575   0.871E-01    0.122E+00
RMM:   3    -0.116388347957E+04   -0.58898E-02   -0.64019E-02  1927   0.360E-01    0.105E+00
RMM:   4    -0.116388347170E+04    0.78701E-05   -0.11932E-02  1824   0.132E-01    0.105E+00
RMM:   5    -0.116388280184E+04    0.66986E-03   -0.66946E-03  1553   0.101E-01    0.898E-01
RMM:   6    -0.116388475877E+04   -0.19569E-02   -0.11643E-02  1551   0.133E-01    0.711E-01
RMM:   7    -0.116388465500E+04    0.10377E-03   -0.21107E-03  1821   0.699E-02    0.639E-01
RMM:   8    -0.116388424445E+04    0.41055E-03   -0.68982E-04  1681   0.347E-02    0.548E-01
RMM:   9    -0.116388394902E+04    0.29543E-03   -0.54322E-04  1685   0.291E-02    0.487E-01
RMM:  10    -0.116388375157E+04    0.19745E-03   -0.27718E-04  1839   0.218E-02    0.407E-01
RMM:  11    -0.116388365624E+04    0.95323E-04   -0.89120E-05  1757   0.122E-02    0.338E-01
RMM:  12    -0.116388355465E+04    0.10160E-03   -0.15093E-04  1615   0.149E-02    0.242E-01
RMM:  13    -0.116388352283E+04    0.31814E-04   -0.85873E-05  1648   0.113E-02    0.183E-01
RMM:  14    -0.116388350868E+04    0.14154E-04   -0.54685E-05  1812   0.926E-03    0.131E-01
RMM:  15    -0.116388349374E+04    0.14935E-04   -0.63657E-05  1735   0.103E-02    0.481E-02
RMM:  16    -0.116388350564E+04   -0.11901E-04   -0.63489E-05  1781   0.932E-03    0.124E-02
RMM:  17    -0.116388351903E+04   -0.13391E-04   -0.14428E-05  1552   0.544E-03    0.279E-02
RMM:  18    -0.116388352819E+04   -0.91596E-05   -0.26590E-06  1088   0.309E-03    0.276E-02
RMM:  19    -0.116388352864E+04   -0.44942E-06   -0.24028E-06  1069   0.233E-03
   2 F= -.11638835E+04 E0= -.11638835E+04  d E =0.662732E-02  mag=     2.0000
       N       E                     dE             d eps       ncg     rms          rms(c)
DAV:   1    -0.116389178144E+04   -0.82532E-02   -0.25914E+00  1728   0.280E+00    0.521E-01
RMM:   2    -0.116389861822E+04   -0.68368E-02   -0.87507E-02  1550   0.486E-01    0.696E-01
RMM:   3    -0.116390012132E+04   -0.15031E-02   -0.18401E-02  1884   0.202E-01    0.593E-01
RMM:   4    -0.116390006213E+04    0.59196E-04   -0.31142E-03  1840   0.705E-02    0.598E-01
RMM:   5    -0.116389981419E+04    0.24794E-03   -0.18282E-03  1549   0.537E-02    0.533E-01
RMM:   6    -0.116390052102E+04   -0.70683E-03   -0.41767E-03  1565   0.773E-02    0.457E-01
RMM:   7    -0.116390066748E+04   -0.14646E-03   -0.66637E-04  1799   0.405E-02    0.417E-01
RMM:   8    -0.116390067491E+04   -0.74289E-05   -0.29088E-04  1691   0.218E-02    0.367E-01
RMM:   9    -0.116390064324E+04    0.31664E-04   -0.17008E-04  1748   0.164E-02    0.332E-01
RMM:  10    -0.116390059732E+04    0.45921E-04   -0.84134E-05  1761   0.121E-02    0.275E-01
RMM:  11    -0.116390057127E+04    0.26055E-04   -0.38142E-05  1669   0.786E-03    0.230E-01
RMM:  12    -0.116390055139E+04    0.19877E-04   -0.37125E-05  1637   0.774E-03    0.175E-01
RMM:  13    -0.116390054268E+04    0.87077E-05   -0.36897E-05  1626   0.738E-03    0.126E-01
RMM:  14    -0.116390054355E+04   -0.86654E-06   -0.13994E-05  1546   0.495E-03    0.102E-01
RMM:  15    -0.116390053986E+04    0.36824E-05   -0.14820E-05  1504   0.558E-03    0.539E-02
RMM:  16    -0.116390053994E+04   -0.79606E-07   -0.20633E-05  1667   0.545E-03    0.216E-02
RMM:  17    -0.116390054184E+04   -0.18995E-05   -0.67954E-06  1368   0.403E-03    0.496E-03
RMM:  18    -0.116390054514E+04   -0.32992E-05   -0.14095E-06  1048   0.239E-03    0.677E-03
RMM:  19    -0.116390054538E+04   -0.23813E-06   -0.68397E-07  1030   0.146E-03
   3 F= -.11639005E+04 E0= -.11639005E+04  d E =-.103894E-01  mag=     2.0000
       N       E                     dE             d eps       ncg     rms          rms(c)
DAV:   1    -0.116389389777E+04    0.66474E-02   -0.31433E+00  1696   0.324E+00    0.528E-01
RMM:   2    -0.116390141607E+04   -0.75183E-02   -0.91653E-02  1538   0.510E-01    0.603E-01
RMM:   3    -0.116390297489E+04   -0.15588E-02   -0.19624E-02  1880   0.217E-01    0.501E-01
RMM:   4    -0.116390271553E+04    0.25936E-03   -0.29344E-03  1747   0.776E-02    0.464E-01
RMM:   5    -0.116390226636E+04    0.44917E-03   -0.30233E-03  1549   0.699E-02    0.335E-01
RMM:   6    -0.116390248412E+04   -0.21776E-03   -0.21384E-03  1596   0.600E-02    0.235E-01
RMM:   7    -0.116390257593E+04   -0.91808E-04   -0.36022E-04  1879   0.316E-02    0.188E-01
RMM:   8    -0.116390263454E+04   -0.58611E-04   -0.29839E-04  1630   0.208E-02    0.132E-01
RMM:   9    -0.116390264940E+04   -0.14860E-04   -0.10614E-04  1874   0.133E-02    0.109E-01
RMM:  10    -0.116390265088E+04   -0.14842E-05   -0.44997E-05  1660   0.932E-03    0.704E-02
RMM:  11    -0.116390265790E+04   -0.70228E-05   -0.18371E-05  1577   0.581E-03    0.484E-02
RMM:  12    -0.116390266612E+04   -0.82207E-05   -0.16649E-05  1600   0.547E-03    0.276E-02
RMM:  13    -0.116390267393E+04   -0.78005E-05   -0.11077E-05  1520   0.485E-03    0.118E-02
RMM:  14    -0.116390267797E+04   -0.40467E-05   -0.37497E-06  1192   0.286E-03    0.964E-03
RMM:  15    -0.116390267894E+04   -0.97314E-06   -0.44236E-06  1178   0.320E-03
   4 F= -.11639027E+04 E0= -.11639027E+04  d E =-.213356E-02  mag=     2.0000
       N       E                     dE             d eps       ncg     rms          rms(c)
DAV:   1    -0.116390389807E+04   -0.12201E-02   -0.58487E-01  1696   0.140E+00    0.234E-01
RMM:   2    -0.116390522091E+04   -0.13228E-02   -0.16928E-02  1538   0.218E-01    0.264E-01
RMM:   3    -0.116390550647E+04   -0.28555E-03   -0.36273E-03  1881   0.935E-02    0.219E-01
RMM:   4    -0.116390545399E+04    0.52476E-04   -0.53648E-04  1746   0.333E-02    0.203E-01
RMM:   5    -0.116390540467E+04    0.49319E-04   -0.55045E-04  1550   0.299E-02    0.148E-01
RMM:   6    -0.116390546708E+04   -0.62411E-04   -0.41839E-04  1592   0.264E-02    0.106E-01
RMM:   7    -0.116390551077E+04   -0.43689E-04   -0.69040E-05  1854   0.140E-02    0.852E-02
RMM:   8    -0.116390553676E+04   -0.25988E-04   -0.61124E-05  1613   0.935E-03    0.610E-02
RMM:   9    -0.116390554000E+04   -0.32384E-05   -0.19980E-05  1643   0.591E-03    0.502E-02
RMM:  10    -0.116390554062E+04   -0.62410E-06   -0.10127E-05  1533   0.490E-03    0.324E-02
RMM:  11    -0.116390554223E+04   -0.16036E-05   -0.31412E-06  1141   0.291E-03    0.234E-02
RMM:  12    -0.116390554410E+04   -0.18791E-05   -0.28351E-06  1133   0.250E-03    0.147E-02
RMM:  13    -0.116390554567E+04   -0.15670E-05   -0.19782E-06  1058   0.242E-03    0.559E-03
RMM:  14    -0.116390554599E+04   -0.31453E-06   -0.59891E-07  1022   0.166E-03
   5 F= -.11639055E+04 E0= -.11639055E+04  d E =-.500060E-02  mag=     2.0000
       N       E                     dE             d eps       ncg     rms          rms(c)
DAV:   1    -0.116390397711E+04    0.15686E-02   -0.19569E+00  1728   0.260E+00    0.399E-01
RMM:   2    -0.116390877857E+04   -0.48015E-02   -0.54160E-02  1543   0.370E-01    0.326E-01
RMM:   3    -0.116390956119E+04   -0.78262E-03   -0.10660E-02  1863   0.159E-01    0.269E-01
RMM:   4    -0.116390916749E+04    0.39370E-03   -0.14763E-03  1654   0.594E-02    0.203E-01
RMM:   5    -0.116390880916E+04    0.35833E-03   -0.15107E-03  1552   0.529E-02    0.112E-01
RMM:   6    -0.116390890915E+04   -0.99990E-04   -0.62957E-04  1676   0.366E-02    0.624E-02
RMM:   7    -0.116390894916E+04   -0.40011E-04   -0.13559E-04  1905   0.189E-02    0.431E-02
RMM:   8    -0.116390895632E+04   -0.71512E-05   -0.31447E-05  1621   0.772E-03    0.288E-02
RMM:   9    -0.116390896712E+04   -0.10801E-04   -0.42931E-05  1605   0.837E-03    0.171E-02
RMM:  10    -0.116390897100E+04   -0.38888E-05   -0.84005E-06  1481   0.446E-03    0.143E-02
RMM:  11    -0.116390897743E+04   -0.64234E-05   -0.44700E-06  1193   0.319E-03    0.120E-02
RMM:  12    -0.116390898346E+04   -0.60330E-05   -0.36506E-06  1140   0.289E-03    0.106E-02
RMM:  13    -0.116390898544E+04   -0.19755E-05   -0.30102E-06  1083   0.285E-03    0.898E-03
RMM:  14    -0.116390898158E+04    0.38585E-05   -0.63609E-06  1141   0.343E-03    0.707E-03
RMM:  15    -0.116390898586E+04   -0.42847E-05   -0.38787E-06  1107   0.271E-03    0.485E-03
RMM:  16    -0.116390899437E+04   -0.85041E-05   -0.19704E-06  1066   0.207E-03    0.359E-03
RMM:  17    -0.116390899984E+04   -0.54781E-05   -0.60699E-07  1030   0.154E-03    0.272E-03
RMM:  18    -0.116390900224E+04   -0.23959E-05   -0.49432E-07  1020   0.113E-03    0.203E-03
RMM:  19    -0.116390900223E+04    0.70504E-08   -0.18932E-07   970   0.941E-04
   6 F= -.11639090E+04 E0= -.11639090E+04  d E =-.345625E-02  mag=     2.0000
       N       E                     dE             d eps       ncg     rms          rms(c)
DAV:   1    -0.116390911087E+04   -0.10863E-03   -0.11639E-01  1792   0.634E-01    0.978E-02
RMM:   2    -0.116390938143E+04   -0.27056E-03   -0.32179E-03  1543   0.900E-02    0.791E-02
RMM:   3    -0.116390942527E+04   -0.43840E-04   -0.62689E-04  1856   0.386E-02    0.646E-02
RMM:   4    -0.116390940651E+04    0.18761E-04   -0.94111E-05  1652   0.149E-02    0.479E-02
RMM:   5    -0.116390939502E+04    0.11488E-04   -0.84380E-05  1547   0.126E-02    0.268E-02
RMM:   6    -0.116390940576E+04   -0.10742E-04   -0.37589E-05  1641   0.901E-03    0.146E-02
RMM:   7    -0.116390940871E+04   -0.29472E-05   -0.73777E-06  1466   0.486E-03    0.102E-02
RMM:   8    -0.116390940995E+04   -0.12352E-05   -0.21834E-06  1077   0.252E-03    0.678E-03
RMM:   9    -0.116390941111E+04   -0.11622E-05   -0.28463E-06  1105   0.251E-03    0.416E-03
RMM:  10    -0.116390941147E+04   -0.36316E-06   -0.50448E-07  1019   0.183E-03
   7 F= -.11639094E+04 E0= -.11639094E+04  d E =-.386549E-02  mag=     2.0000
       N       E                     dE             d eps       ncg     rms          rms(c)
DAV:   1    -0.116390734517E+04    0.20659E-02   -0.17269E+00  1664   0.245E+00    0.365E-01
RMM:   2    -0.116391177478E+04   -0.44296E-02   -0.50188E-02  1541   0.340E-01    0.274E-01
RMM:   3    -0.116391248222E+04   -0.70744E-03   -0.89991E-03  1818   0.141E-01    0.219E-01
RMM:   4    -0.116391236306E+04    0.11916E-03   -0.13130E-03  1676   0.553E-02    0.160E-01
RMM:   5    -0.116391236307E+04   -0.15054E-07   -0.82720E-04  1584   0.405E-02    0.926E-02
RMM:   6    -0.116391258131E+04   -0.21824E-03   -0.39671E-04  1714   0.301E-02    0.460E-02
RMM:   7    -0.116391261015E+04   -0.28837E-04   -0.79677E-05  1911   0.141E-02    0.355E-02
RMM:   8    -0.116391261997E+04   -0.98230E-05   -0.43761E-05  1565   0.862E-03    0.205E-02
RMM:   9    -0.116391263042E+04   -0.10452E-04   -0.19187E-05  1620   0.573E-03    0.155E-02
RMM:  10    -0.116391263282E+04   -0.23965E-05   -0.29055E-06  1076   0.326E-03    0.134E-02
RMM:  11    -0.116391264001E+04   -0.71860E-05   -0.79155E-06  1455   0.390E-03    0.991E-03
RMM:  12    -0.116391264370E+04   -0.36945E-05   -0.17597E-06  1062   0.208E-03    0.923E-03
RMM:  13    -0.116391264714E+04   -0.34434E-05   -0.19416E-06  1059   0.239E-03    0.796E-03
RMM:  14    -0.116391264456E+04    0.25808E-05   -0.44854E-06  1114   0.282E-03    0.645E-03
RMM:  15    -0.116391264847E+04   -0.39107E-05   -0.22523E-06  1070   0.216E-03    0.481E-03
RMM:  16    -0.116391264974E+04   -0.12628E-05   -0.25474E-06  1083   0.218E-03    0.344E-03
RMM:  17    -0.116391265544E+04   -0.57079E-05   -0.69306E-07  1032   0.155E-03    0.270E-03
RMM:  18    -0.116391265745E+04   -0.20100E-05   -0.51805E-07  1019   0.112E-03    0.205E-03
RMM:  19    -0.116391265810E+04   -0.65094E-06   -0.15218E-07   997   0.910E-04
   8 F= -.11639127E+04 E0= -.11639127E+04  d E =-.324663E-02  mag=     2.0000
       N       E                     dE             d eps       ncg     rms          rms(c)
DAV:   1    -0.116391264367E+04    0.13783E-04   -0.16209E-02  1856   0.237E-01    0.352E-02
RMM:   2    -0.116391267612E+04   -0.32449E-04   -0.47148E-04  1541   0.328E-02    0.265E-02
RMM:   3    -0.116391268207E+04   -0.59503E-05   -0.79968E-05  1796   0.136E-02    0.210E-02
RMM:   4    -0.116391268344E+04   -0.13657E-05   -0.15535E-05  1517   0.577E-03    0.152E-02
RMM:   5    -0.116391268768E+04   -0.42491E-05   -0.77770E-06  1473   0.408E-03    0.893E-03
RMM:   6    -0.116391269275E+04   -0.50651E-05   -0.39118E-06  1245   0.316E-03    0.457E-03
RMM:   7    -0.116391269340E+04   -0.64854E-06   -0.73545E-07  1027   0.201E-03
   9 F= -.11639127E+04 E0= -.11639127E+04  d E =-.328193E-02  mag=     2.0000
       N       E                     dE             d eps       ncg     rms          rms(c)
DAV:   1    -0.116391195025E+04    0.74249E-03   -0.12704E+00  1632   0.206E+00    0.291E-01
RMM:   2    -0.116391444347E+04   -0.24932E-02   -0.31088E-02  1543   0.284E-01    0.226E-01
RMM:   3    -0.116391477716E+04   -0.33369E-03   -0.57903E-03  1801   0.119E-01    0.179E-01
RMM:   4    -0.116391469331E+04    0.83852E-04   -0.10128E-03  1667   0.493E-02    0.127E-01
RMM:   5    -0.116391478116E+04   -0.87853E-04   -0.62419E-04  1590   0.352E-02    0.712E-02
RMM:   6    -0.116391499668E+04   -0.21552E-03   -0.25747E-04  1807   0.248E-02    0.356E-02
RMM:   7    -0.116391501202E+04   -0.15334E-04   -0.43260E-05  1785   0.101E-02    0.259E-02
RMM:   8    -0.116391502478E+04   -0.12757E-04   -0.33947E-05  1548   0.725E-03    0.140E-02
RMM:   9    -0.116391502923E+04   -0.44578E-05   -0.11701E-05  1548   0.462E-03    0.107E-02
RMM:  10    -0.116391503066E+04   -0.14262E-05   -0.14068E-06  1037   0.276E-03    0.918E-03
RMM:  11    -0.116391503467E+04   -0.40113E-05   -0.30189E-06  1155   0.236E-03    0.694E-03
RMM:  12    -0.116391503555E+04   -0.87696E-06   -0.78951E-07  1035   0.151E-03
  10 F= -.11639150E+04 E0= -.11639150E+04  d E =-.234215E-02  mag=     2.0000
       N       E                     dE             d eps       ncg     rms          rms(c)
DAV:   1    -0.116391503610E+04   -0.14296E-05   -0.13484E-02  1824   0.212E-01    0.304E-02
RMM:   2    -0.116391505095E+04   -0.14850E-04   -0.33067E-04  1545   0.294E-02    0.241E-02
RMM:   3    -0.116391505484E+04   -0.38939E-05   -0.58175E-05  1773   0.124E-02    0.192E-02
RMM:   4    -0.116391505787E+04   -0.30270E-05   -0.13576E-05  1541   0.553E-03    0.135E-02
RMM:   5    -0.116391506406E+04   -0.61912E-05   -0.66668E-06  1453   0.376E-03    0.799E-03
RMM:   6    -0.116391507086E+04   -0.68008E-05   -0.25258E-06  1078   0.290E-03    0.407E-03
RMM:   7    -0.116391507134E+04   -0.47756E-06   -0.54080E-07  1020   0.186E-03
  11 F= -.11639151E+04 E0= -.11639151E+04  d E =-.237794E-02  mag=     2.0000
       N       E                     dE             d eps       ncg     rms          rms(c)
DAV:   1    -0.116391503127E+04    0.39597E-04   -0.93727E-01  1600   0.170E+00    0.215E-01
RMM:   2    -0.116391625559E+04   -0.12243E-02   -0.16739E-02  1537   0.227E-01    0.188E-01
RMM:   3    -0.116391636612E+04   -0.11053E-03   -0.35455E-03  1789   0.100E-01    0.160E-01
RMM:   4    -0.116391613217E+04    0.23395E-03   -0.78832E-04  1629   0.451E-02    0.107E-01
RMM:   5    -0.116391611825E+04    0.13926E-04   -0.73872E-04  1562   0.373E-02    0.518E-02
RMM:   6    -0.116391622627E+04   -0.10803E-03   -0.18492E-04  1916   0.223E-02    0.301E-02
RMM:   7    -0.116391623285E+04   -0.65716E-05   -0.26121E-05  1707   0.741E-03    0.219E-02
RMM:   8    -0.116391624416E+04   -0.11310E-04   -0.22651E-05  1565   0.603E-03    0.109E-02
RMM:   9    -0.116391624563E+04   -0.14731E-05   -0.15048E-05  1543   0.490E-03    0.822E-03
RMM:  10    -0.116391624650E+04   -0.87366E-06   -0.19411E-06  1051   0.313E-03
  12 F= -.11639162E+04 E0= -.11639162E+04  d E =-.117516E-02  mag=     2.0000
       N       E                     dE             d eps       ncg     rms          rms(c)
DAV:   1    -0.116391634763E+04   -0.10200E-03   -0.69359E-02  1664   0.464E-01    0.586E-02
RMM:   2    -0.116391642076E+04   -0.73130E-04   -0.12439E-03  1537   0.621E-02    0.516E-02
RMM:   3    -0.116391642798E+04   -0.72232E-05   -0.26094E-04  1794   0.273E-02    0.442E-02
RMM:   4    -0.116391641874E+04    0.92418E-05   -0.58593E-05  1633   0.122E-02    0.302E-02
RMM:   5    -0.116391642090E+04   -0.21589E-05   -0.56620E-05  1554   0.103E-02    0.143E-02
RMM:   6    -0.116391643442E+04   -0.13516E-04   -0.13477E-05  1617   0.615E-03    0.807E-03
RMM:   7    -0.116391643553E+04   -0.11171E-05   -0.21228E-06  1065   0.301E-03    0.570E-03
RMM:   8    -0.116391643671E+04   -0.11774E-05   -0.19172E-06  1046   0.212E-03    0.292E-03
RMM:   9    -0.116391643673E+04   -0.14319E-07   -0.78057E-07  1020   0.176E-03
  13 F= -.11639164E+04 E0= -.11639164E+04  d E =-.136538E-02  mag=     2.0000
