       N       E                     dE             d eps       ncg     rms          rms(c)
DAV:   1     0.506083442660E+04    0.50608E+04   -0.17542E+05  1836   0.932E+02
DAV:   2    -0.106914998462E+02   -0.50715E+04   -0.46558E+04  2592   0.213E+02
DAV:   3    -0.118598316557E+04   -0.11753E+04   -0.11671E+04  2016   0.113E+02
DAV:   4    -0.123610513018E+04   -0.50122E+02   -0.49800E+02  2016   0.310E+01
DAV:   5    -0.123737315918E+04   -0.12680E+01   -0.12639E+01  2340   0.449E+00    0.669E+01
RMM:   6    -0.122670478645E+04    0.10668E+02   -0.34808E+01  1584   0.591E+00    0.547E+01
RMM:   7    -0.121320376017E+04    0.13501E+02   -0.51204E+00  1584   0.275E+00    0.465E+01
RMM:   8    -0.118134406894E+04    0.31860E+02   -0.61001E+01  1584   0.898E+00    0.301E+01
RMM:   9    -0.117610548160E+04    0.52386E+01   -0.36777E+00  1590   0.229E+00    0.229E+01
RMM:  10    -0.117269919000E+04    0.34063E+01   -0.76173E+00  1584   0.316E+00    0.163E+01
RMM:  11    -0.117400922319E+04   -0.13100E+01   -0.12864E+01  1584   0.407E+00    0.868E+00
RMM:  12    -0.117230406123E+04    0.17052E+01   -0.10409E+00  1590   0.110E+00    0.501E+00
RMM:  13    -0.117170775023E+04    0.59631E+00   -0.11143E+00  1584   0.104E+00    0.348E+00
RMM:  14    -0.117163944444E+04    0.68306E-01   -0.13458E-01  1585   0.393E-01    0.241E+00
RMM:  15    -0.117161609264E+04    0.23352E-01   -0.48972E-02  1585   0.219E-01    0.142E+00
RMM:  16    -0.117161097025E+04    0.51224E-02   -0.22399E-02  1587   0.155E-01    0.125E+00
RMM:  17    -0.117160483928E+04    0.61310E-02   -0.91309E-03  1605   0.850E-02    0.502E-01
RMM:  18    -0.117161153522E+04   -0.66959E-02   -0.63238E-03  1584   0.737E-02    0.642E-01
RMM:  19    -0.117160868760E+04    0.28476E-02   -0.55658E-03  1571   0.593E-02    0.586E-01
RMM:  20    -0.117160774144E+04    0.94616E-03   -0.55542E-04  1154   0.284E-02    0.498E-01
RMM:  21    -0.117160589100E+04    0.18504E-02   -0.38849E-04  1068   0.175E-02    0.156E-01
RMM:  22    -0.117160649227E+04   -0.60127E-03   -0.12260E-04  1032   0.143E-02    0.465E-02
RMM:  23    -0.117160672433E+04   -0.23205E-03   -0.69805E-05  1020   0.104E-02    0.287E-02
RMM:  24    -0.117160677476E+04   -0.50438E-04   -0.16209E-05   980   0.605E-03
   1 F= -.11787726E+04 E0= -.11787726E+04  d E =-.117877E+04  mag=    -0.0010
       N       E                     dE             d eps       ncg     rms          rms(c)
DAV:   1    -0.117160557098E+04    0.11533E-02   -0.89447E-01  1656   0.121E+00    0.282E-01
RMM:   2    -0.117160682262E+04   -0.12516E-02   -0.21254E-02  1584   0.170E-01    0.240E-01
RMM:   3    -0.117160659870E+04    0.22392E-03   -0.10416E-03  1349   0.366E-02    0.220E-01
RMM:   4    -0.117160650408E+04    0.94614E-04   -0.23110E-04  1071   0.199E-02
   2 F= -.11787726E+04 E0= -.11787726E+04  d E =-.826325E-04  mag=     0.0003
       N       E                     dE             d eps       ncg     rms          rms(c)
DAV:   1    -0.117160734981E+04   -0.75112E-03   -0.26403E-01  1728   0.662E-01    0.121E-01
RMM:   2    -0.117160796815E+04   -0.61833E-03   -0.65709E-03  1584   0.968E-02    0.893E-02
RMM:   3    -0.117160787789E+04    0.90257E-04   -0.28945E-04  1078   0.197E-02
   3 F= -.11787738E+04 E0= -.11787738E+04  d E =-.126778E-02  mag=     0.0000
       N       E                     dE             d eps       ncg     rms          rms(c)
DAV:   1    -0.117160852048E+04   -0.55234E-03   -0.37622E-01  1692   0.735E-01    0.154E-01
RMM:   2    -0.117160898680E+04   -0.46632E-03   -0.66506E-03  1584   0.929E-02    0.133E-01
RMM:   3    -0.117160893862E+04    0.48185E-04   -0.25533E-04  1077   0.189E-02
   4 F= -.11787751E+04 E0= -.11787751E+04  d E =-.124170E-02  mag=     0.0000
       N       E                     dE             d eps       ncg     rms          rms(c)
DAV:   1    -0.117160884920E+04    0.13760E-03   -0.21323E-01  1692   0.555E-01    0.217E-01
RMM:   2    -0.117160886617E+04   -0.16964E-04   -0.37958E-03  1538   0.701E-02    0.199E-01
RMM:   3    -0.117160884585E+04    0.20316E-04   -0.16245E-04  1062   0.155E-02
   5 F= -.11787751E+04 E0= -.11787751E+04  d E =-.128631E-02  mag=    -0.0000
       N       E                     dE             d eps       ncg     rms          rms(c)
DAV:   1    -0.117160941916E+04   -0.55299E-03   -0.34003E-01  1728   0.762E-01    0.245E-01
RMM:   2    -0.117160947282E+04   -0.53664E-04   -0.63930E-03  1584   0.972E-02    0.239E-01
RMM:   3    -0.117160937285E+04    0.99973E-04   -0.24274E-04  1098   0.202E-02
   6 F= -.11787759E+04 E0= -.11787759E+04  d E =-.790096E-03  mag=    -0.0000
       N       E                     dE             d eps       ncg     rms          rms(c)
DAV:   1    -0.117160868152E+04    0.79130E-03   -0.72574E-01  1728   0.111E+00    0.364E-01
RMM:   2    -0.117160877314E+04   -0.91619E-04   -0.13633E-02  1584   0.140E-01    0.360E-01
RMM:   3    -0.117160846656E+04    0.30659E-03   -0.56303E-04  1212   0.299E-02    0.294E-01
RMM:   4    -0.117160826083E+04    0.20573E-03   -0.99095E-04  1556   0.358E-02    0.184E-01
RMM:   5    -0.117160875043E+04   -0.48960E-03   -0.18667E-03  1584   0.482E-02    0.712E-02
RMM:   6    -0.117160877365E+04   -0.23220E-04   -0.18423E-04  1048   0.148E-02
   7 F= -.11787757E+04 E0= -.11787757E+04  d E =-.575347E-03  mag=    -0.0000
       N       E                     dE             d eps       ncg     rms          rms(c)
DAV:   1    -0.117160975879E+04   -0.10084E-02   -0.26917E-01  1728   0.676E-01    0.164E-01
RMM:   2    -0.117160987719E+04   -0.11840E-03   -0.50770E-03  1584   0.865E-02    0.165E-01
RMM:   3    -0.117160978497E+04    0.92226E-04   -0.19464E-04  1060   0.183E-02
   8 F= -.11787765E+04 E0= -.11787765E+04  d E =-.135351E-02  mag=    -0.0000
       N       E                     dE             d eps       ncg     rms          rms(c)
DAV:   1    -0.117161182542E+04   -0.19482E-02   -0.13704E-01  1728   0.507E-01    0.212E-01
RMM:   2    -0.117161152653E+04    0.29889E-03   -0.25769E-03  1584   0.697E-02    0.214E-01
RMM:   3    -0.117161135862E+04    0.16790E-03   -0.13068E-04  1032   0.152E-02    0.167E-01
RMM:   4    -0.117161087090E+04    0.48772E-03   -0.17531E-03  1584   0.466E-02    0.991E-02
RMM:   5    -0.117161102323E+04   -0.15233E-03   -0.31531E-04  1154   0.207E-02    0.793E-02
RMM:   6    -0.117161109065E+04   -0.67417E-04   -0.19873E-04  1016   0.142E-02
   9 F= -.11787775E+04 E0= -.11787775E+04  d E =-.104470E-02  mag=    -0.0000
       N       E                     dE             d eps       ncg     rms          rms(c)
DAV:   1    -0.117161122261E+04   -0.19938E-03   -0.15251E-03  1728   0.445E-02    0.741E-02
RMM:   2    -0.117161126659E+04   -0.43975E-04   -0.61090E-05   992   0.908E-03
  10 F= -.11787777E+04 E0= -.11787777E+04  d E =-.124057E-02  mag=    -0.0000
       N       E                     dE             d eps       ncg     rms          rms(c)
DAV:   1    -0.117161194216E+04   -0.71955E-03   -0.17021E-01  1620   0.478E-01    0.126E-01
RMM:   2    -0.117161209528E+04   -0.15312E-03   -0.26934E-03  1515   0.614E-02    0.117E-01
RMM:   3    -0.117161211895E+04   -0.23672E-04   -0.14051E-04  1032   0.134E-02
  11 F= -.11787785E+04 E0= -.11787785E+04  d E =-.776445E-03  mag=    -0.0000
       N       E                     dE             d eps       ncg     rms          rms(c)
DAV:   1    -0.117161231797E+04   -0.22269E-03   -0.10195E-01  1584   0.363E-01    0.137E-01
RMM:   2    -0.117161253037E+04   -0.21240E-03   -0.15821E-03  1302   0.453E-02    0.116E-01
RMM:   3    -0.117161258120E+04   -0.50831E-04   -0.11361E-04  1017   0.128E-02
  12 F= -.11787789E+04 E0= -.11787789E+04  d E =-.118021E-02  mag=    -0.0000
       N       E                     dE             d eps       ncg     rms          rms(c)
DAV:   1    -0.117161292664E+04   -0.39627E-03   -0.14870E-01  1584   0.518E-01    0.155E-01
RMM:   2    -0.117161302908E+04   -0.10244E-03   -0.28377E-03  1582   0.686E-02    0.119E-01
RMM:   3    -0.117161304984E+04   -0.20755E-04   -0.13602E-04  1040   0.149E-02
  13 F= -.11787793E+04 E0= -.11787793E+04  d E =-.435457E-03  mag=    -0.0000
       N       E                     dE             d eps       ncg     rms          rms(c)
DAV:   1    -0.117161316989E+04   -0.14081E-03   -0.48733E-04  1620   0.208E-02    0.837E-02
RMM:   2    -0.117161320013E+04   -0.30238E-04   -0.34682E-05   977   0.786E-03
  14 F= -.11787795E+04 E0= -.11787795E+04  d E =-.586111E-03  mag=    -0.0000
