       N       E                     dE             d eps       ncg     rms          rms(c)
DAV:   1     0.496713468834E+04    0.49671E+04   -0.17049E+05  1836   0.905E+02
DAV:   2    -0.294760865757E+02   -0.49966E+04   -0.45410E+04  2520   0.208E+02
DAV:   3    -0.117216499398E+04   -0.11427E+04   -0.11371E+04  2088   0.113E+02
DAV:   4    -0.122993896397E+04   -0.57774E+02   -0.57502E+02  2160   0.344E+01
DAV:   5    -0.123217896525E+04   -0.22400E+01   -0.22345E+01  2412   0.607E+00    0.602E+01
RMM:   6    -0.121895538548E+04    0.13224E+02   -0.69092E+00  1689   0.328E+00    0.497E+01
RMM:   7    -0.118526085778E+04    0.33695E+02   -0.43229E+01  1930   0.887E+00    0.306E+01
RMM:   8    -0.117139365219E+04    0.13867E+02   -0.19765E+01  1759   0.735E+00    0.224E+01
RMM:   9    -0.116864630685E+04    0.27473E+01   -0.33998E+01  1915   0.853E+00    0.949E+00
RMM:  10    -0.116901582743E+04   -0.36952E+00   -0.26664E+00  1945   0.424E+00    0.770E+00
RMM:  11    -0.116829528290E+04    0.72054E+00   -0.14323E+00  1813   0.164E+00    0.357E+00
RMM:  12    -0.116822900052E+04    0.66282E-01   -0.31706E-01  1786   0.148E+00    0.144E+00
RMM:  13    -0.116819598425E+04    0.33016E-01   -0.18670E-01  1923   0.635E-01    0.611E-01
RMM:  14    -0.116819313421E+04    0.28500E-02   -0.27632E-02  1936   0.288E-01    0.393E-01
RMM:  15    -0.116819267966E+04    0.45455E-03   -0.50600E-03  1862   0.116E-01    0.279E-01
RMM:  16    -0.116819283312E+04   -0.15346E-03   -0.14640E-03  1620   0.780E-02    0.193E-01
RMM:  17    -0.116819305744E+04   -0.22432E-03   -0.77380E-04  1501   0.732E-02    0.935E-02
RMM:  18    -0.116819316312E+04   -0.10568E-03   -0.23081E-04  1155   0.470E-02    0.541E-02
RMM:  19    -0.116819318371E+04   -0.20597E-04   -0.10357E-04  1070   0.291E-02
   1 F= -.11751894E+04 E0= -.11751834E+04  d E =-.117519E+04  mag=    -0.8089
       N       E                     dE             d eps       ncg     rms          rms(c)
DAV:   1    -0.116819370774E+04   -0.54463E-03   -0.28631E-01  1728   0.896E-01    0.171E-01
RMM:   2    -0.116819413591E+04   -0.42816E-03   -0.88726E-03  1939   0.150E-01    0.161E-01
RMM:   3    -0.116819379299E+04    0.34291E-03   -0.72740E-04  1422   0.692E-02    0.142E-01
RMM:   4    -0.116819299069E+04    0.80230E-03   -0.31800E-03  1815   0.761E-02    0.469E-02
RMM:   5    -0.116819300881E+04   -0.18117E-04   -0.35327E-04  1258   0.686E-02
   2 F= -.11751894E+04 E0= -.11751833E+04  d E =0.828915E-05  mag=    -0.8035
       N       E                     dE             d eps       ncg     rms          rms(c)
DAV:   1    -0.116819418910E+04   -0.11984E-02   -0.76302E-02  1764   0.460E-01    0.877E-02
RMM:   2    -0.116819418134E+04    0.77585E-05   -0.15493E-03  1688   0.712E-02    0.807E-02
RMM:   3    -0.116819397546E+04    0.20588E-03   -0.24695E-04  1114   0.572E-02    0.598E-02
RMM:   4    -0.116819381893E+04    0.15652E-03   -0.65783E-04  1542   0.359E-02    0.259E-02
RMM:   5    -0.116819383421E+04   -0.15275E-04   -0.16534E-04  1097   0.607E-02
   3 F= -.11751902E+04 E0= -.11751841E+04  d E =-.729783E-03  mag=    -0.8055
