       N       E                     dE             d eps       ncg     rms          rms(c)
DAV:   1     0.490308496853E+04    0.49031E+04   -0.17746E+05  1856   0.951E+02
DAV:   2    -0.310159291621E+02   -0.49341E+04   -0.45136E+04  2432   0.215E+02
DAV:   3    -0.120082607650E+04   -0.11698E+04   -0.11631E+04  2016   0.114E+02
DAV:   4    -0.124938341795E+04   -0.48557E+02   -0.48276E+02  1920   0.307E+01
DAV:   5    -0.125062508295E+04   -0.12417E+01   -0.12384E+01  2336   0.461E+00    0.777E+01
RMM:   6    -0.123604651123E+04    0.14579E+02   -0.62039E+01  1648   0.815E+00    0.704E+01
RMM:   7    -0.121937094659E+04    0.16676E+02   -0.80815E+00  1567   0.384E+00    0.470E+01
RMM:   8    -0.120243792457E+04    0.16933E+02   -0.14595E+01  1580   0.495E+00    0.364E+01
RMM:   9    -0.118438451823E+04    0.18053E+02   -0.23741E+01  1591   0.636E+00    0.248E+01
RMM:  10    -0.117687006577E+04    0.75145E+01   -0.16672E+01  1546   0.548E+00    0.176E+01
RMM:  11    -0.117748717646E+04   -0.61711E+00   -0.11432E+01  1556   0.466E+00    0.837E+00
RMM:  12    -0.117781946567E+04   -0.33229E+00   -0.16788E+00  1732   0.215E+00    0.616E+00
RMM:  13    -0.117720339601E+04    0.61607E+00   -0.13518E+00  1541   0.155E+00    0.745E+00
RMM:  14    -0.117715941433E+04    0.43982E-01   -0.18853E-01  1546   0.708E-01    0.751E+00
RMM:  15    -0.117715622529E+04    0.31890E-02   -0.37701E-02  1824   0.314E-01    0.750E+00
RMM:  16    -0.117718931181E+04   -0.33087E-01   -0.66508E-02  1540   0.349E-01    0.754E+00
RMM:  17    -0.117707259739E+04    0.11671E+00   -0.98363E-02  1627   0.404E-01    0.517E+00
RMM:  18    -0.117709520889E+04   -0.22611E-01   -0.14459E-02  1576   0.203E-01    0.418E+00
RMM:  19    -0.117707477465E+04    0.20434E-01   -0.17741E-01  2162   0.498E-01    0.599E+00
RMM:  20    -0.117703098309E+04    0.43792E-01   -0.18097E-02  1680   0.186E-01    0.654E+00
RMM:  21    -0.117703316932E+04   -0.21862E-02   -0.30688E-03  1921   0.775E-02    0.656E+00
RMM:  22    -0.117703741432E+04   -0.42450E-02   -0.24581E-03  1542   0.667E-02    0.636E+00
RMM:  23    -0.117703002148E+04    0.73928E-02   -0.81287E-03  1854   0.107E-01    0.626E+00
RMM:  24    -0.117701630347E+04    0.13718E-01   -0.36003E-03  1633   0.763E-02    0.637E+00
RMM:  25    -0.117706549614E+04   -0.49193E-01   -0.79770E-02  2498   0.328E-01    0.505E+00
RMM:  26    -0.117714338719E+04   -0.77891E-01   -0.12636E-01  2518   0.411E-01    0.384E+00
RMM:  27    -0.117719808669E+04   -0.54700E-01   -0.11289E-01  2523   0.379E-01    0.421E+00
RMM:  28    -0.117724879467E+04   -0.50708E-01   -0.38699E-02  2325   0.218E-01    0.566E+00
RMM:  29    -0.117719786715E+04    0.50928E-01   -0.91143E-03  1845   0.159E-01    0.532E+00
RMM:  30    -0.117707655463E+04    0.12131E+00   -0.14536E-01  2554   0.447E-01    0.342E+00
RMM:  31    -0.117704448259E+04    0.32072E-01   -0.11134E-01  2521   0.379E-01    0.346E+00
RMM:  32    -0.117701962668E+04    0.24856E-01   -0.64579E-02  2410   0.274E-01    0.549E+00
RMM:  33    -0.117701511010E+04    0.45166E-02   -0.62664E-03  2053   0.818E-02    0.611E+00
RMM:  34    -0.117701517440E+04   -0.64293E-04   -0.16319E-02  2301   0.147E-01    0.640E+00
RMM:  35    -0.117707614045E+04   -0.60966E-01   -0.91942E-02  2458   0.334E-01    0.259E+00
RMM:  36    -0.117709887967E+04   -0.22739E-01   -0.92489E-02  2504   0.338E-01    0.372E+00
RMM:  37    -0.117709746279E+04    0.14169E-02   -0.65863E-03  1863   0.129E-01    0.412E+00
RMM:  38    -0.117712645203E+04   -0.28989E-01   -0.31171E-02  2301   0.184E-01    0.527E+00
RMM:  39    -0.117711761239E+04    0.88396E-02   -0.55352E-03  1898   0.109E-01    0.518E+00
RMM:  40    -0.117711341538E+04    0.41970E-02   -0.40898E-03  1962   0.801E-02    0.524E+00
RMM:  41    -0.117712495227E+04   -0.11537E-01   -0.63188E-03  1952   0.847E-02    0.473E+00
RMM:  42    -0.117712198827E+04    0.29640E-02   -0.34032E-04  1727   0.270E-02    0.475E+00
RMM:  43    -0.117712362062E+04   -0.16324E-02   -0.29725E-04  1740   0.185E-02    0.464E+00
RMM:  44    -0.117712428123E+04   -0.66061E-03   -0.13789E-04  1673   0.128E-02    0.457E+00
RMM:  45    -0.117714283823E+04   -0.18557E-01   -0.13716E-02  2535   0.129E-01    0.342E+00
RMM:  46    -0.117715054225E+04   -0.77040E-02   -0.85205E-03  2470   0.949E-02    0.258E+00
RMM:  47    -0.117714550645E+04    0.50358E-02   -0.12865E-03  2275   0.432E-02    0.262E+00
RMM:  48    -0.117714478802E+04    0.71843E-03   -0.57525E-03  2519   0.845E-02    0.228E+00
RMM:  49    -0.117715695958E+04   -0.12172E-01   -0.25040E-02  2553   0.174E-01    0.838E-01
RMM:  50    -0.117715700308E+04   -0.43503E-04   -0.15665E-03  2175   0.379E-02    0.749E-01
RMM:  51    -0.117715649633E+04    0.50675E-03   -0.10289E-03  2277   0.383E-02    0.758E-01
RMM:  52    -0.117715259954E+04    0.38968E-02   -0.87886E-03  2496   0.104E-01    0.110E+00
RMM:  53    -0.117715250255E+04    0.96994E-04   -0.88491E-04  2015   0.311E-02    0.106E+00
RMM:  54    -0.117714099531E+04    0.11507E-01   -0.64893E-03  2407   0.900E-02    0.185E+00
RMM:  55    -0.117714144301E+04   -0.44771E-03   -0.73507E-04  2088   0.274E-02    0.186E+00
RMM:  56    -0.117715386098E+04   -0.12418E-01   -0.79678E-03  2509   0.101E-01    0.715E-01
RMM:  57    -0.117715511830E+04   -0.12573E-02   -0.11012E-03  2159   0.331E-02    0.428E-01
RMM:  58    -0.117715563899E+04   -0.52069E-03   -0.23362E-04  1836   0.174E-02    0.255E-01
RMM:  59    -0.117715575250E+04   -0.11352E-03   -0.74601E-05  1712   0.106E-02    0.206E-01
RMM:  60    -0.117715593250E+04   -0.17999E-03   -0.17501E-04  1932   0.159E-02    0.643E-02
RMM:  61    -0.117715586591E+04    0.66593E-04   -0.25502E-04  2085   0.180E-02    0.975E-02
RMM:  62    -0.117715594308E+04   -0.77175E-04   -0.97207E-05  1704   0.127E-02    0.447E-02
RMM:  63    -0.117715595197E+04   -0.88896E-05   -0.90237E-06  1401   0.428E-03    0.298E-02
RMM:  64    -0.117715595382E+04   -0.18503E-05   -0.82660E-06  1413   0.376E-03    0.145E-02
RMM:  65    -0.117715595343E+04    0.38663E-06   -0.15842E-06  1059   0.183E-03
   1 F= -.11842315E+04 E0= -.11842312E+04  d E =-.118423E+04  mag=     3.9921
