       N       E                     dE             d eps       ncg     rms          rms(c)
DAV:   1     0.501894286909E+04    0.50189E+04   -0.17082E+05  1800   0.914E+02
DAV:   2    -0.307470996323E+02   -0.50497E+04   -0.46117E+04  2520   0.211E+02
DAV:   3    -0.118586271381E+04   -0.11551E+04   -0.11497E+04  2196   0.112E+02
DAV:   4    -0.123052972206E+04   -0.44667E+02   -0.44434E+02  2052   0.284E+01
DAV:   5    -0.123164992901E+04   -0.11202E+01   -0.11175E+01  2340   0.414E+00    0.662E+01
RMM:   6    -0.121184503394E+04    0.19805E+02   -0.27387E+01  1584   0.509E+00    0.553E+01
RMM:   7    -0.119797076479E+04    0.13874E+02   -0.82922E+00  1584   0.319E+00    0.461E+01
RMM:   8    -0.118588550151E+04    0.12085E+02   -0.92207E+00  1584   0.341E+00    0.389E+01
RMM:   9    -0.116373397045E+04    0.22152E+02   -0.38518E+01  1584   0.712E+00    0.243E+01
RMM:  10    -0.116221833120E+04    0.15156E+01   -0.18348E+01  1584   0.480E+00    0.127E+01
RMM:  11    -0.116297593895E+04   -0.75761E+00   -0.21202E+00  1598   0.175E+00    0.103E+01
RMM:  12    -0.116246778170E+04    0.50816E+00   -0.61422E-01  1584   0.740E-01    0.698E+00
RMM:  13    -0.116210747217E+04    0.36031E+00   -0.12008E+00  1584   0.916E-01    0.350E+00
RMM:  14    -0.116216600402E+04   -0.58532E-01   -0.20439E-01  1587   0.431E-01    0.553E+00
RMM:  15    -0.116210650712E+04    0.59497E-01   -0.12752E-01  1594   0.268E-01    0.355E+00
RMM:  16    -0.116205033015E+04    0.56177E-01   -0.10490E-01  1584   0.357E-01    0.130E+00
RMM:  17    -0.116206458254E+04   -0.14252E-01   -0.88899E-03  1601   0.124E-01    0.140E+00
RMM:  18    -0.116206870171E+04   -0.41192E-02   -0.52054E-03  1584   0.745E-02    0.109E+00
RMM:  19    -0.116207080961E+04   -0.21079E-02   -0.43022E-03  1584   0.590E-02    0.820E-01
RMM:  20    -0.116207218866E+04   -0.13791E-02   -0.12820E-03  1261   0.314E-02    0.724E-01
RMM:  21    -0.116207309747E+04   -0.90881E-03   -0.13063E-03  1576   0.363E-02    0.734E-01
RMM:  22    -0.116206887088E+04    0.42266E-02   -0.38546E-03  1419   0.520E-02    0.828E-01
RMM:  23    -0.116206948044E+04   -0.60957E-03   -0.56148E-03  1584   0.681E-02    0.710E-01
RMM:  24    -0.116206618406E+04    0.32964E-02   -0.11212E-02  1319   0.688E-02    0.645E-01
RMM:  25    -0.116205868663E+04    0.74974E-02   -0.25040E-02  1474   0.984E-02    0.538E-01
RMM:  26    -0.116206965722E+04   -0.10971E-01   -0.42008E-03  1248   0.470E-02    0.541E-01
RMM:  27    -0.116206448717E+04    0.51700E-02   -0.12746E-02  1267   0.683E-02    0.552E-01
RMM:  28    -0.116205637219E+04    0.81150E-02   -0.82701E-02  1551   0.196E-01    0.371E-01
RMM:  29    -0.116207565065E+04   -0.19278E-01   -0.38582E-03  1266   0.545E-02    0.320E-01
RMM:  30    -0.116200200445E+04    0.73646E-01   -0.22576E-01  1551   0.305E-01    0.112E+00
RMM:  31    -0.116203323330E+04   -0.31229E-01   -0.15649E-02  1307   0.788E-02    0.119E+00
RMM:  32    -0.116205255435E+04   -0.19321E-01   -0.27497E-03  1223   0.425E-02    0.952E-01
RMM:  33    -0.116206638851E+04   -0.13834E-01   -0.62951E-03  1250   0.556E-02    0.632E-01
RMM:  34    -0.116207636044E+04   -0.99719E-02   -0.10314E-02  1268   0.733E-02    0.121E-01
RMM:  35    -0.116207693251E+04   -0.57207E-03   -0.12195E-03  1079   0.230E-02    0.345E-02
RMM:  36    -0.116207695985E+04   -0.27342E-04   -0.69618E-04  1053   0.178E-02
   1 F= -.11693556E+04 E0= -.11693554E+04  d E =-.116936E+04  mag=     1.9985
       N       E                     dE             d eps       ncg     rms          rms(c)
DAV:   1    -0.116207108463E+04    0.58479E-02   -0.35523E+01  1620   0.619E+00    0.206E+00
RMM:   2    -0.116213497431E+04   -0.63890E-01   -0.65425E-01  1584   0.946E-01    0.161E+00
RMM:   3    -0.116213690954E+04   -0.19352E-02   -0.44064E-02  1645   0.199E-01    0.123E+00
RMM:   4    -0.116213105058E+04    0.58590E-02   -0.26396E-02  1586   0.162E-01    0.794E-01
RMM:   5    -0.116213024533E+04    0.80525E-03   -0.77426E-03  1589   0.858E-02    0.534E-01
RMM:   6    -0.116213126104E+04   -0.10157E-02   -0.44011E-03  1584   0.716E-02    0.199E-01
RMM:   7    -0.116213092338E+04    0.33767E-03   -0.86096E-04  1241   0.275E-02    0.116E-01
RMM:   8    -0.116213086018E+04    0.63199E-04   -0.80718E-05  1046   0.108E-02
   2 F= -.11694081E+04 E0= -.11694081E+04  d E =-.524956E-01  mag=     2.0000
       N       E                     dE             d eps       ncg     rms          rms(c)
DAV:   1    -0.116213126943E+04   -0.34605E-03   -0.11150E+00  1728   0.108E+00    0.338E-01
RMM:   2    -0.116213297753E+04   -0.17081E-02   -0.17838E-02  1584   0.159E-01    0.271E-01
RMM:   3    -0.116213294887E+04    0.28657E-04   -0.13105E-03  1262   0.342E-02    0.202E-01
RMM:   4    -0.116213267970E+04    0.26918E-03   -0.91762E-04  1300   0.314E-02    0.128E-01
RMM:   5    -0.116213263379E+04    0.45913E-04   -0.36905E-04  1107   0.206E-02
   3 F= -.11694101E+04 E0= -.11694101E+04  d E =-.544781E-01  mag=     2.0000
       N       E                     dE             d eps       ncg     rms          rms(c)
DAV:   1    -0.116214614866E+04   -0.13469E-01   -0.14078E+01  1728   0.371E+00    0.116E+00
RMM:   2    -0.116216914241E+04   -0.22994E-01   -0.21906E-01  1584   0.549E-01    0.983E-01
RMM:   3    -0.116216994279E+04   -0.80038E-03   -0.11299E-02  1630   0.107E-01    0.781E-01
RMM:   4    -0.116216855640E+04    0.13864E-02   -0.81028E-03  1575   0.878E-02    0.530E-01
RMM:   5    -0.116216808902E+04    0.46738E-03   -0.65670E-03  1580   0.754E-02    0.255E-01
RMM:   6    -0.116216825285E+04   -0.16383E-03   -0.61391E-04  1181   0.246E-02    0.186E-01
RMM:   7    -0.116216824051E+04    0.12345E-04   -0.57139E-04  1138   0.224E-02
   4 F= -.11694434E+04 E0= -.11694434E+04  d E =-.333542E-01  mag=     2.0000
       N       E                     dE             d eps       ncg     rms          rms(c)
DAV:   1    -0.116216847322E+04   -0.22037E-03   -0.79584E-02  1872   0.276E-01    0.965E-02
RMM:   2    -0.116216861097E+04   -0.13775E-03   -0.12503E-03  1286   0.430E-02    0.780E-02
RMM:   3    -0.116216865026E+04   -0.39291E-04   -0.70702E-05   983   0.109E-02
   5 F= -.11694437E+04 E0= -.11694437E+04  d E =-.336054E-01  mag=     2.0000
       N       E                     dE             d eps       ncg     rms          rms(c)
DAV:   1    -0.116217254782E+04   -0.39369E-02   -0.21759E+00  1692   0.168E+00    0.504E-01
RMM:   2    -0.116217623464E+04   -0.36868E-02   -0.35373E-02  1585   0.238E-01    0.450E-01
RMM:   3    -0.116217652985E+04   -0.29520E-03   -0.16634E-03  1424   0.469E-02    0.375E-01
RMM:   4    -0.116217648299E+04    0.46855E-04   -0.17647E-03  1551   0.462E-02    0.233E-01
RMM:   5    -0.116217651225E+04   -0.29257E-04   -0.90946E-04  1376   0.311E-02
   6 F= -.11694506E+04 E0= -.11694506E+04  d E =-.693512E-02  mag=     2.0000
       N       E                     dE             d eps       ncg     rms          rms(c)
DAV:   1    -0.116217658706E+04   -0.10407E-03   -0.37631E-03  1764   0.704E-02    0.835E-02
RMM:   2    -0.116217658145E+04    0.56091E-05   -0.92599E-05  1009   0.121E-02
   7 F= -.11694506E+04 E0= -.11694506E+04  d E =-.696613E-02  mag=     2.0000
       N       E                     dE             d eps       ncg     rms          rms(c)
DAV:   1    -0.116217947015E+04   -0.28831E-02   -0.13680E+00  1656   0.130E+00    0.389E-01
RMM:   2    -0.116218159773E+04   -0.21276E-02   -0.20237E-02  1584   0.163E-01    0.332E-01
RMM:   3    -0.116218201423E+04   -0.41650E-03   -0.10729E-03  1283   0.367E-02    0.259E-01
RMM:   4    -0.116218208167E+04   -0.67437E-04   -0.67752E-04  1278   0.288E-02
   8 F= -.11694555E+04 E0= -.11694555E+04  d E =-.483932E-02  mag=     2.0000
       N       E                     dE             d eps       ncg     rms          rms(c)
DAV:   1    -0.116217924354E+04    0.27707E-02   -0.23774E+00  1620   0.170E+00    0.522E-01
RMM:   2    -0.116218296420E+04   -0.37207E-02   -0.38164E-02  1584   0.213E-01    0.446E-01
RMM:   3    -0.116218352434E+04   -0.56014E-03   -0.17964E-03  1453   0.471E-02    0.360E-01
RMM:   4    -0.116218369489E+04   -0.17055E-03   -0.10790E-03  1515   0.358E-02    0.244E-01
RMM:   5    -0.116218368317E+04    0.11721E-04   -0.12573E-03  1565   0.363E-02    0.131E-01
RMM:   6    -0.116218383250E+04   -0.14933E-03   -0.27966E-04  1092   0.179E-02    0.761E-02
RMM:   7    -0.116218383314E+04   -0.64421E-06   -0.49613E-05  1015   0.885E-03
   9 F= -.11694564E+04 E0= -.11694564E+04  d E =-.575527E-02  mag=     2.0000
       N       E                     dE             d eps       ncg     rms          rms(c)
DAV:   1    -0.116218500792E+04   -0.11754E-02   -0.82027E-01  1584   0.145E+00    0.310E-01
RMM:   2    -0.116218664488E+04   -0.16370E-02   -0.20301E-02  1586   0.215E-01    0.268E-01
RMM:   3    -0.116218631804E+04    0.32684E-03   -0.11259E-03  1529   0.434E-02    0.231E-01
RMM:   4    -0.116218586106E+04    0.45698E-03   -0.40583E-03  1582   0.685E-02    0.945E-02
RMM:   5    -0.116218582336E+04    0.37699E-04   -0.10665E-04  1065   0.156E-02
  10 F= -.11694577E+04 E0= -.11694577E+04  d E =-.130259E-02  mag=     2.0000
       N       E                     dE             d eps       ncg     rms          rms(c)
DAV:   1    -0.116218731189E+04   -0.14508E-02   -0.15672E-01  1728   0.637E-01    0.122E-01
RMM:   2    -0.116218759227E+04   -0.28038E-03   -0.34378E-03  1586   0.878E-02    0.105E-01
RMM:   3    -0.116218752765E+04    0.64621E-04   -0.16868E-04  1072   0.184E-02
  11 F= -.11694597E+04 E0= -.11694597E+04  d E =-.330575E-02  mag=     2.0000
       N       E                     dE             d eps       ncg     rms          rms(c)
DAV:   1    -0.116218839570E+04   -0.80343E-03   -0.21108E-01  1728   0.700E-01    0.129E-01
RMM:   2    -0.116218871212E+04   -0.31643E-03   -0.39460E-03  1588   0.936E-02    0.114E-01
RMM:   3    -0.116218868886E+04    0.23269E-04   -0.16222E-04  1084   0.183E-02
  12 F= -.11694607E+04 E0= -.11694607E+04  d E =-.980893E-03  mag=     2.0000
       N       E                     dE             d eps       ncg     rms          rms(c)
DAV:   1    -0.116218865237E+04    0.59756E-04   -0.67506E-04  1728   0.430E-02    0.563E-02
RMM:   2    -0.116218865870E+04   -0.63327E-05   -0.58441E-05  1002   0.128E-02
  13 F= -.11694606E+04 E0= -.11694606E+04  d E =-.941796E-03  mag=     2.0000
