       N       E                     dE             d eps       ncg     rms          rms(c)
DAV:   1     0.470414323138E+04    0.47041E+04   -0.17608E+05  1872   0.909E+02
DAV:   2    -0.117916980331E+03   -0.48221E+04   -0.44134E+04  2556   0.210E+02
DAV:   3    -0.119412829441E+04   -0.10762E+04   -0.10685E+04  2160   0.108E+02
DAV:   4    -0.123647249941E+04   -0.42344E+02   -0.42158E+02  2088   0.278E+01
DAV:   5    -0.123758501439E+04   -0.11125E+01   -0.11106E+01  2376   0.435E+00    0.992E+01
RMM:   6    -0.123849841137E+04   -0.91340E+00   -0.20576E+02  1821   0.172E+01    0.986E+01
RMM:   7    -0.121565289920E+04    0.22846E+02   -0.11023E+01  1604   0.435E+00    0.755E+01
RMM:   8    -0.118537789122E+04    0.30275E+02   -0.35311E+01  1590   0.704E+00    0.349E+01
RMM:   9    -0.117713011595E+04    0.82478E+01   -0.58415E+00  1589   0.317E+00    0.306E+01
RMM:  10    -0.116031117938E+04    0.16819E+02   -0.45158E+01  1585   0.789E+00    0.173E+01
RMM:  11    -0.116062854502E+04   -0.31737E+00   -0.12295E+01  1593   0.448E+00    0.864E+00
RMM:  12    -0.116087055533E+04   -0.24201E+00   -0.74736E-01  1712   0.127E+00    0.744E+00
RMM:  13    -0.116018704089E+04    0.68351E+00   -0.10756E+00  1598   0.128E+00    0.344E+00
RMM:  14    -0.116002158563E+04    0.16546E+00   -0.55704E-01  1591   0.833E-01    0.216E+00
RMM:  15    -0.116000195369E+04    0.19632E-01   -0.10309E-01  1596   0.394E-01    0.172E+00
RMM:  16    -0.115997424843E+04    0.27705E-01   -0.94279E-02  1646   0.350E-01    0.532E-01
RMM:  17    -0.115997393055E+04    0.31788E-03   -0.56654E-03  1604   0.973E-02    0.388E-01
RMM:  18    -0.115997467405E+04   -0.74350E-03   -0.27548E-03  1581   0.558E-02    0.269E-01
RMM:  19    -0.115997493577E+04   -0.26172E-03   -0.19227E-03  1582   0.565E-02    0.134E-01
RMM:  20    -0.115997510423E+04   -0.16846E-03   -0.93791E-04  1410   0.398E-02    0.473E-02
RMM:  21    -0.115997532091E+04   -0.21668E-03   -0.19414E-04  1104   0.198E-02    0.328E-02
RMM:  22    -0.115997535717E+04   -0.36262E-04   -0.70334E-05  1022   0.145E-02
   1 F= -.11669541E+04 E0= -.11669497E+04  d E =-.116695E+04  mag=     0.8783
       N       E                     dE             d eps       ncg     rms          rms(c)
DAV:   1    -0.115997550749E+04   -0.18658E-03   -0.21936E-01  1728   0.755E-01    0.160E-01
RMM:   2    -0.115997583636E+04   -0.32887E-03   -0.66234E-03  1594   0.115E-01    0.152E-01
RMM:   3    -0.115997559059E+04    0.24577E-03   -0.38020E-04  1238   0.304E-02    0.137E-01
RMM:   4    -0.115997500990E+04    0.58069E-03   -0.20194E-03  1578   0.511E-02    0.433E-02
RMM:   5    -0.115997500926E+04    0.64137E-06   -0.11237E-04  1041   0.164E-02
   2 F= -.11669540E+04 E0= -.11669496E+04  d E =0.154761E-03  mag=     0.8742
       N       E                     dE             d eps       ncg     rms          rms(c)
DAV:   1    -0.115997605514E+04   -0.10452E-02   -0.65741E-02  1620   0.411E-01    0.862E-02
RMM:   2    -0.115997607892E+04   -0.23778E-04   -0.14254E-03  1584   0.594E-02    0.814E-02
RMM:   3    -0.115997596186E+04    0.11705E-03   -0.88857E-05  1025   0.151E-02    0.683E-02
RMM:   4    -0.115997579837E+04    0.16350E-03   -0.67209E-04  1547   0.296E-02    0.209E-02
RMM:   5    -0.115997579790E+04    0.46203E-06   -0.20345E-05   995   0.835E-03
   3 F= -.11669547E+04 E0= -.11669503E+04  d E =-.526647E-03  mag=     0.8756
