       N       E                     dE             d eps       ncg     rms          rms(c)
DAV:   1     0.487543406694E+04    0.48754E+04   -0.17685E+05  1856   0.950E+02
DAV:   2    -0.273976741638E+02   -0.49028E+04   -0.44787E+04  2432   0.212E+02
DAV:   3    -0.119547434625E+04   -0.11681E+04   -0.11628E+04  2016   0.113E+02
DAV:   4    -0.124482071876E+04   -0.49346E+02   -0.49006E+02  1952   0.307E+01
DAV:   5    -0.124608499717E+04   -0.12643E+01   -0.12604E+01  2304   0.458E+00    0.734E+01
RMM:   6    -0.122794403775E+04    0.18141E+02   -0.10630E+01  1606   0.395E+00    0.561E+01
RMM:   7    -0.120001713345E+04    0.27927E+02   -0.49571E+01  1590   0.842E+00    0.382E+01
RMM:   8    -0.118892362134E+04    0.11094E+02   -0.12297E+01  1553   0.497E+00    0.295E+01
RMM:   9    -0.117883539768E+04    0.10088E+02   -0.20642E+01  1568   0.575E+00    0.194E+01
RMM:  10    -0.117814728191E+04    0.68812E+00   -0.12019E+01  1558   0.462E+00    0.129E+01
RMM:  11    -0.117962047673E+04   -0.14732E+01   -0.33907E+00  1617   0.267E+00    0.770E+00
RMM:  12    -0.117894192196E+04    0.67855E+00   -0.59776E-01  1566   0.117E+00    0.558E+00
RMM:  13    -0.117847081644E+04    0.47111E+00   -0.58427E-01  1537   0.984E-01    0.348E+00
RMM:  14    -0.117833081039E+04    0.14001E+00   -0.77755E-01  1545   0.112E+00    0.105E+00
RMM:  15    -0.117833188016E+04   -0.10698E-02   -0.69609E-02  1589   0.435E-01    0.675E-01
RMM:  16    -0.117833255417E+04   -0.67401E-03   -0.20694E-02  1618   0.216E-01    0.545E-01
RMM:  17    -0.117833203323E+04    0.52094E-03   -0.48848E-03  1720   0.107E-01    0.446E-01
RMM:  18    -0.117833223760E+04   -0.20437E-03   -0.28629E-03  1674   0.726E-02    0.312E-01
RMM:  19    -0.117833255291E+04   -0.31531E-03   -0.28479E-03  1559   0.729E-02    0.162E-01
RMM:  20    -0.117833246533E+04    0.87588E-04   -0.37906E-04  1555   0.307E-02    0.843E-02
RMM:  21    -0.117833246668E+04   -0.13527E-05   -0.44987E-04  1559   0.267E-02    0.406E-02
RMM:  22    -0.117833242497E+04    0.41710E-04   -0.15500E-04  1545   0.165E-02    0.254E-02
RMM:  23    -0.117833242721E+04   -0.22467E-05   -0.46629E-05  1603   0.928E-03    0.173E-02
RMM:  24    -0.117833242415E+04    0.30655E-05   -0.16163E-05  1549   0.557E-03    0.712E-03
RMM:  25    -0.117833242142E+04    0.27263E-05   -0.51902E-06  1363   0.317E-03    0.509E-03
RMM:  26    -0.117833242124E+04    0.18794E-06   -0.11033E-06  1028   0.158E-03
   1 F= -.11854829E+04 E0= -.11854776E+04  d E =-.118548E+04  mag=    -0.8414
       N       E                     dE             d eps       ncg     rms          rms(c)
DAV:   1    -0.117833053679E+04    0.18846E-02   -0.35487E-01  1568   0.966E-01    0.223E-01
RMM:   2    -0.117833134269E+04   -0.80589E-03   -0.10161E-02  1672   0.150E-01    0.198E-01
RMM:   3    -0.117833131471E+04    0.27977E-04   -0.22212E-03  1903   0.661E-02    0.163E-01
RMM:   4    -0.117833125485E+04    0.59860E-04   -0.90919E-04  1620   0.386E-02    0.941E-02
RMM:   5    -0.117833123348E+04    0.21371E-04   -0.19292E-04  1849   0.193E-02    0.454E-02
RMM:   6    -0.117833122962E+04    0.38559E-05   -0.86200E-05  1599   0.989E-03    0.191E-02
RMM:   7    -0.117833122284E+04    0.67848E-05   -0.19582E-05  1553   0.556E-03    0.138E-02
RMM:   8    -0.117833122209E+04    0.75182E-06   -0.30640E-05  1554   0.622E-03    0.690E-03
RMM:   9    -0.117833122150E+04    0.58812E-06   -0.34885E-06  1239   0.290E-03
   2 F= -.11854825E+04 E0= -.11854772E+04  d E =0.344629E-03  mag=    -0.8386
       N       E                     dE             d eps       ncg     rms          rms(c)
DAV:   1    -0.117833251385E+04   -0.12918E-02   -0.11091E-01  1664   0.538E-01    0.126E-01
RMM:   2    -0.117833269869E+04   -0.18484E-03   -0.25843E-03  1637   0.808E-02    0.111E-01
RMM:   3    -0.117833266890E+04    0.29790E-04   -0.56415E-04  1716   0.348E-02    0.878E-02
RMM:   4    -0.117833266408E+04    0.48157E-05   -0.28323E-04  1626   0.214E-02    0.527E-02
RMM:   5    -0.117833265036E+04    0.13729E-04   -0.57240E-05  1814   0.102E-02    0.223E-02
RMM:   6    -0.117833265268E+04   -0.23250E-05   -0.24341E-05  1514   0.550E-03    0.108E-02
RMM:   7    -0.117833265059E+04    0.20900E-05   -0.65095E-06  1314   0.312E-03    0.817E-03
RMM:   8    -0.117833265014E+04    0.44952E-06   -0.90027E-06  1500   0.339E-03
   3 F= -.11854835E+04 E0= -.11854782E+04  d E =-.606510E-03  mag=    -0.8399
       N       E                     dE             d eps       ncg     rms          rms(c)
DAV:   1    -0.117833277360E+04   -0.12301E-03   -0.22827E-01  1824   0.766E-01    0.100E-01
RMM:   2    -0.117833306506E+04   -0.29146E-03   -0.37691E-03  1653   0.983E-02    0.865E-02
RMM:   3    -0.117833309243E+04   -0.27375E-04   -0.82356E-04  1672   0.429E-02    0.710E-02
RMM:   4    -0.117833307839E+04    0.14039E-04   -0.28247E-04  1670   0.234E-02    0.354E-02
RMM:   5    -0.117833308585E+04   -0.74536E-05   -0.68070E-05  1772   0.114E-02    0.206E-02
RMM:   6    -0.117833308567E+04    0.17320E-06   -0.18266E-05  1652   0.561E-03    0.101E-02
RMM:   7    -0.117833308627E+04   -0.59939E-06   -0.39740E-06  1201   0.265E-03
   4 F= -.11854842E+04 E0= -.11854789E+04  d E =-.704154E-03  mag=    -0.8383
       N       E                     dE             d eps       ncg     rms          rms(c)
DAV:   1    -0.117833309565E+04   -0.99764E-05   -0.31772E-04  1696   0.288E-02    0.474E-03
RMM:   2    -0.117833309600E+04   -0.34815E-06   -0.43002E-06  1205   0.332E-03
   5 F= -.11854842E+04 E0= -.11854789E+04  d E =-.703448E-03  mag=    -0.8384
       N       E                     dE             d eps       ncg     rms          rms(c)
DAV:   1    -0.117833335754E+04   -0.26189E-03   -0.11396E-01  1664   0.547E-01    0.775E-02
RMM:   2    -0.117833352002E+04   -0.16248E-03   -0.20025E-03  1688   0.723E-02    0.668E-02
RMM:   3    -0.117833354197E+04   -0.21955E-04   -0.47176E-04  1643   0.319E-02    0.537E-02
RMM:   4    -0.117833354631E+04   -0.43416E-05   -0.20076E-04  1614   0.199E-02    0.166E-02
RMM:   5    -0.117833354892E+04   -0.26061E-05   -0.34347E-05  1975   0.828E-03    0.135E-02
RMM:   6    -0.117833354635E+04    0.25745E-05   -0.84053E-06  1513   0.369E-03    0.834E-03
RMM:   7    -0.117833354689E+04   -0.54469E-06   -0.23453E-06  1074   0.208E-03
   6 F= -.11854848E+04 E0= -.11854794E+04  d E =-.627288E-03  mag=    -0.8358
       N       E                     dE             d eps       ncg     rms          rms(c)
DAV:   1    -0.117833349701E+04    0.49333E-04   -0.46111E-02  1664   0.348E-01    0.502E-02
RMM:   2    -0.117833356146E+04   -0.64448E-04   -0.81899E-04  1688   0.464E-02    0.436E-02
RMM:   3    -0.117833357033E+04   -0.88671E-05   -0.19210E-04  1644   0.204E-02    0.351E-02
RMM:   4    -0.117833357450E+04   -0.41707E-05   -0.87439E-05  1614   0.130E-02    0.110E-02
RMM:   5    -0.117833357536E+04   -0.86266E-06   -0.14392E-05  1835   0.541E-03    0.902E-03
RMM:   6    -0.117833357413E+04    0.12351E-05   -0.44077E-06  1386   0.267E-03    0.516E-03
RMM:   7    -0.117833357441E+04   -0.28791E-06   -0.91694E-07  1011   0.142E-03
   7 F= -.11854850E+04 E0= -.11854795E+04  d E =-.766621E-03  mag=    -0.8341
