       N       E                     dE             d eps       ncg     rms          rms(c)
DAV:   1     0.457620454785E+04    0.45762E+04   -0.17584E+05  1888   0.932E+02
DAV:   2    -0.982765763847E+02   -0.46745E+04   -0.42362E+04  2400   0.209E+02
DAV:   3    -0.118492900125E+04   -0.10867E+04   -0.10781E+04  2016   0.109E+02
DAV:   4    -0.123022124171E+04   -0.45292E+02   -0.45032E+02  1952   0.293E+01
DAV:   5    -0.123139195178E+04   -0.11707E+01   -0.11676E+01  2272   0.444E+00    0.748E+01
RMM:   6    -0.121693985441E+04    0.14452E+02   -0.57015E+01  1654   0.764E+00    0.562E+01
RMM:   7    -0.120233660671E+04    0.14603E+02   -0.10026E+01  1552   0.417E+00    0.443E+01
RMM:   8    -0.118856338171E+04    0.13773E+02   -0.10968E+01  1545   0.425E+00    0.354E+01
RMM:   9    -0.116427312328E+04    0.24290E+02   -0.53635E+01  1820   0.886E+00    0.199E+01
RMM:  10    -0.116327257663E+04    0.10005E+01   -0.12528E+01  1545   0.478E+00    0.119E+01
RMM:  11    -0.116437193119E+04   -0.10994E+01   -0.32581E+00  1561   0.260E+00    0.707E+00
RMM:  12    -0.116385450187E+04    0.51743E+00   -0.15082E+00  1562   0.156E+00    0.346E+00
RMM:  13    -0.116377125578E+04    0.83246E-01   -0.35645E-01  1541   0.861E-01    0.250E+00
RMM:  14    -0.116375397652E+04    0.17279E-01   -0.76185E-02  1626   0.406E-01    0.139E+00
RMM:  15    -0.116375096901E+04    0.30075E-02   -0.74378E-02  1583   0.331E-01    0.456E-01
RMM:  16    -0.116375257040E+04   -0.16014E-02   -0.12532E-02  1644   0.151E-01    0.256E-01
RMM:  17    -0.116375223678E+04    0.33363E-03   -0.26131E-03  1638   0.726E-02    0.186E-01
RMM:  18    -0.116375259726E+04   -0.36049E-03   -0.13479E-03  1585   0.554E-02    0.936E-02
RMM:  19    -0.116375271690E+04   -0.11964E-03   -0.60601E-04  1757   0.350E-02    0.617E-02
RMM:  20    -0.116375272670E+04   -0.98017E-05   -0.14461E-04  1715   0.160E-02    0.507E-02
RMM:  21    -0.116375275025E+04   -0.23549E-04   -0.42605E-05  1563   0.952E-03    0.214E-02
RMM:  22    -0.116375275601E+04   -0.57546E-05   -0.22555E-05  1578   0.654E-03    0.127E-02
RMM:  23    -0.116375275792E+04   -0.19131E-05   -0.85463E-06  1567   0.400E-03    0.665E-03
RMM:  24    -0.116375275838E+04   -0.46195E-06   -0.17185E-06  1056   0.205E-03
   1 F= -.11637528E+04 E0= -.11637528E+04  d E =-.116375E+04  mag=     4.0001
       N       E                     dE             d eps       ncg     rms          rms(c)
DAV:   1    -0.116367722975E+04    0.75528E-01   -0.95105E+00  1792   0.615E+00    0.132E+00
RMM:   2    -0.116372787409E+04   -0.50644E-01   -0.50184E-01  1666   0.100E+00    0.108E+00
RMM:   3    -0.116374385280E+04   -0.15979E-01   -0.15399E-01  1803   0.400E-01    0.789E-01
RMM:   4    -0.116374401693E+04   -0.16413E-03   -0.15753E-02  1869   0.151E-01    0.626E-01
RMM:   5    -0.116374198551E+04    0.20314E-02   -0.72757E-03  1605   0.108E-01    0.342E-01
RMM:   6    -0.116374160441E+04    0.38110E-03   -0.40113E-03  1584   0.785E-02    0.215E-01
RMM:   7    -0.116374172050E+04   -0.11610E-03   -0.11798E-03  1705   0.469E-02    0.131E-01
RMM:   8    -0.116374176027E+04   -0.39766E-04   -0.30512E-04  1684   0.234E-02    0.793E-02
RMM:   9    -0.116374168841E+04    0.71859E-04   -0.13783E-04  1542   0.163E-02    0.616E-02
RMM:  10    -0.116374169176E+04   -0.33509E-05   -0.11284E-04  1566   0.133E-02    0.290E-02
RMM:  11    -0.116374169615E+04   -0.43853E-05   -0.13020E-05  1524   0.580E-03    0.176E-02
RMM:  12    -0.116374169437E+04    0.17775E-05   -0.13096E-05  1481   0.464E-03    0.101E-02
RMM:  13    -0.116374169371E+04    0.65942E-06   -0.38119E-06  1218   0.263E-03
   2 F= -.11637417E+04 E0= -.11637417E+04  d E =0.110647E-01  mag=     4.0000
       N       E                     dE             d eps       ncg     rms          rms(c)
DAV:   1    -0.116374679756E+04   -0.51032E-02   -0.31072E+00  1760   0.351E+00    0.760E-01
RMM:   2    -0.116376273698E+04   -0.15939E-01   -0.15846E-01  1646   0.565E-01    0.615E-01
RMM:   3    -0.116376770828E+04   -0.49713E-02   -0.48167E-02  1745   0.225E-01    0.433E-01
RMM:   4    -0.116376776174E+04   -0.53468E-04   -0.50176E-03  1850   0.854E-02    0.349E-01
RMM:   5    -0.116376714997E+04    0.61177E-03   -0.21131E-03  1602   0.591E-02    0.191E-01
RMM:   6    -0.116376703931E+04    0.11066E-03   -0.14208E-03  1580   0.457E-02    0.113E-01
RMM:   7    -0.116376708402E+04   -0.44712E-04   -0.32273E-04  1762   0.245E-02    0.753E-02
RMM:   8    -0.116376710113E+04   -0.17115E-04   -0.80421E-05  1667   0.117E-02    0.465E-02
RMM:   9    -0.116376707756E+04    0.23574E-04   -0.54240E-05  1533   0.996E-03    0.364E-02
RMM:  10    -0.116376708291E+04   -0.53531E-05   -0.33991E-05  1554   0.713E-03    0.154E-02
RMM:  11    -0.116376708391E+04   -0.99440E-06   -0.38815E-06  1202   0.311E-03
   3 F= -.11637671E+04 E0= -.11637671E+04  d E =-.143255E-01  mag=     4.0000
       N       E                     dE             d eps       ncg     rms          rms(c)
DAV:   1    -0.116370976637E+04    0.57317E-01   -0.46252E+00  1824   0.518E+00    0.123E+00
RMM:   2    -0.116375683569E+04   -0.47069E-01   -0.44263E-01  1703   0.754E-01    0.815E-01
RMM:   3    -0.116377374050E+04   -0.16905E-01   -0.13606E-01  1761   0.304E-01    0.407E-01
RMM:   4    -0.116377485055E+04   -0.11100E-02   -0.10547E-02  1863   0.107E-01    0.314E-01
RMM:   5    -0.116377464633E+04    0.20422E-03   -0.19258E-03  1663   0.542E-02    0.182E-01
RMM:   6    -0.116377452977E+04    0.11655E-03   -0.97345E-04  1621   0.393E-02    0.111E-01
RMM:   7    -0.116377459225E+04   -0.62476E-04   -0.32982E-04  1619   0.265E-02    0.485E-02
RMM:   8    -0.116377460818E+04   -0.15935E-04   -0.76846E-05  1732   0.130E-02    0.339E-02
RMM:   9    -0.116377459716E+04    0.11020E-04   -0.23847E-05  1586   0.644E-03    0.252E-02
RMM:  10    -0.116377460089E+04   -0.37276E-05   -0.23541E-05  1591   0.627E-03    0.974E-03
RMM:  11    -0.116377460087E+04    0.24062E-07   -0.28050E-06  1143   0.273E-03
   4 F= -.11637746E+04 E0= -.11637746E+04  d E =-.751696E-02  mag=     4.0000
       N       E                     dE             d eps       ncg     rms          rms(c)
DAV:   1    -0.116377065418E+04    0.39467E-02   -0.39043E-01  1888   0.150E+00    0.354E-01
RMM:   2    -0.116377456663E+04   -0.39124E-02   -0.37200E-02  1700   0.218E-01    0.238E-01
RMM:   3    -0.116377604738E+04   -0.14808E-02   -0.11536E-02  1751   0.881E-02    0.110E-01
RMM:   4    -0.116377613521E+04   -0.87823E-04   -0.88225E-04  1861   0.311E-02    0.882E-02
RMM:   5    -0.116377612087E+04    0.14340E-04   -0.18236E-04  1641   0.166E-02    0.469E-02
RMM:   6    -0.116377612068E+04    0.18098E-06   -0.10129E-04  1614   0.127E-02    0.245E-02
RMM:   7    -0.116377613209E+04   -0.11404E-04   -0.18482E-05  1598   0.666E-03    0.132E-02
RMM:   8    -0.116377613262E+04   -0.53205E-06   -0.63069E-06  1344   0.342E-03
   5 F= -.11637761E+04 E0= -.11637761E+04  d E =-.904871E-02  mag=     4.0000
       N       E                     dE             d eps       ncg     rms          rms(c)
DAV:   1    -0.116368574717E+04    0.90385E-01   -0.46096E+00  1888   0.556E+00    0.145E+00
RMM:   2    -0.116375527128E+04   -0.69524E-01   -0.64292E-01  1708   0.784E-01    0.917E-01
RMM:   3    -0.116378173439E+04   -0.26463E-01   -0.20058E-01  1740   0.317E-01    0.369E-01
RMM:   4    -0.116378309025E+04   -0.13559E-02   -0.13267E-02  1852   0.109E-01    0.304E-01
RMM:   5    -0.116378285907E+04    0.23117E-03   -0.20454E-03  1641   0.542E-02    0.165E-01
RMM:   6    -0.116378270989E+04    0.14918E-03   -0.85764E-04  1617   0.377E-02    0.102E-01
RMM:   7    -0.116378279024E+04   -0.80346E-04   -0.22668E-04  1606   0.226E-02    0.399E-02
RMM:   8    -0.116378281025E+04   -0.20014E-04   -0.75049E-05  1697   0.121E-02    0.324E-02
RMM:   9    -0.116378280633E+04    0.39174E-05   -0.31491E-05  1567   0.749E-03    0.181E-02
RMM:  10    -0.116378281740E+04   -0.11068E-04   -0.12835E-05  1617   0.498E-03    0.822E-03
RMM:  11    -0.116378281728E+04    0.12016E-06   -0.21425E-06  1095   0.222E-03
   6 F= -.11637828E+04 E0= -.11637828E+04  d E =-.668466E-02  mag=     4.0000
       N       E                     dE             d eps       ncg     rms          rms(c)
DAV:   1    -0.116378028182E+04    0.25356E-02   -0.13335E-01  1984   0.945E-01    0.245E-01
RMM:   2    -0.116378224736E+04   -0.19655E-02   -0.18565E-02  1700   0.133E-01    0.156E-01
RMM:   3    -0.116378305788E+04   -0.81052E-03   -0.58776E-03  1735   0.541E-02    0.572E-02
RMM:   4    -0.116378309409E+04   -0.36210E-04   -0.37046E-04  1825   0.185E-02    0.490E-02
RMM:   5    -0.116378308629E+04    0.78041E-05   -0.83774E-05  1618   0.107E-02    0.222E-02
RMM:   6    -0.116378309066E+04   -0.43743E-05   -0.27772E-05  1599   0.673E-03    0.130E-02
RMM:   7    -0.116378309640E+04   -0.57381E-05   -0.54346E-06  1200   0.338E-03    0.783E-03
RMM:   8    -0.116378309828E+04   -0.18836E-05   -0.22701E-06  1099   0.209E-03    0.473E-03
RMM:   9    -0.116378309865E+04   -0.36515E-06   -0.74529E-07  1017   0.125E-03
   7 F= -.11637831E+04 E0= -.11637831E+04  d E =-.696603E-02  mag=     4.0000
       N       E                     dE             d eps       ncg     rms          rms(c)
DAV:   1    -0.116370666062E+04    0.76438E-01   -0.33552E+00  1952   0.482E+00    0.132E+00
RMM:   2    -0.116376527251E+04   -0.58612E-01   -0.53710E-01  1704   0.681E-01    0.831E-01
RMM:   3    -0.116378818837E+04   -0.22916E-01   -0.16842E-01  1748   0.273E-01    0.305E-01
RMM:   4    -0.116378926761E+04   -0.10792E-02   -0.10297E-02  1877   0.906E-02    0.254E-01
RMM:   5    -0.116378922120E+04    0.46409E-04   -0.14098E-03  1666   0.429E-02    0.131E-01
RMM:   6    -0.116378915546E+04    0.65736E-04   -0.49309E-04  1634   0.280E-02    0.802E-02
RMM:   7    -0.116378923421E+04   -0.78746E-04   -0.11805E-04  1623   0.162E-02    0.317E-02
RMM:   8    -0.116378924739E+04   -0.13177E-04   -0.38998E-05  1660   0.829E-03    0.251E-02
RMM:   9    -0.116378925391E+04   -0.65202E-05   -0.17029E-05  1554   0.544E-03    0.122E-02
RMM:  10    -0.116378925950E+04   -0.55929E-05   -0.60260E-06  1414   0.331E-03    0.644E-03
RMM:  11    -0.116378925959E+04   -0.93663E-07   -0.14040E-06  1077   0.169E-03
   8 F= -.11637893E+04 E0= -.11637893E+04  d E =-.616095E-02  mag=     4.0000
       N       E                     dE             d eps       ncg     rms          rms(c)
DAV:   1    -0.116378780105E+04    0.14584E-02   -0.63725E-02  2016   0.665E-01    0.180E-01
RMM:   2    -0.116378887513E+04   -0.10741E-02   -0.10166E-02  1700   0.935E-02    0.114E-01
RMM:   3    -0.116378934022E+04   -0.46509E-03   -0.32246E-03  1744   0.377E-02    0.395E-02
RMM:   4    -0.116378936109E+04   -0.20871E-04   -0.19189E-04  1798   0.126E-02    0.339E-02
RMM:   5    -0.116378935964E+04    0.14500E-05   -0.43094E-05  1612   0.721E-03    0.141E-02
RMM:   6    -0.116378936263E+04   -0.29846E-05   -0.96867E-06  1540   0.395E-03    0.841E-03
RMM:   7    -0.116378936616E+04   -0.35362E-05   -0.22550E-06  1110   0.210E-03    0.509E-03
RMM:   8    -0.116378936686E+04   -0.70054E-06   -0.81268E-07  1039   0.126E-03
   9 F= -.11637894E+04 E0= -.11637894E+04  d E =-.626822E-02  mag=     4.0000
       N       E                     dE             d eps       ncg     rms          rms(c)
DAV:   1    -0.116370575831E+04    0.83608E-01   -0.33368E+00  1920   0.484E+00    0.136E+00
RMM:   2    -0.116376839242E+04   -0.62634E-01   -0.57031E-01  1708   0.678E-01    0.853E-01
RMM:   3    -0.116379323065E+04   -0.24838E-01   -0.17888E-01  1756   0.270E-01    0.298E-01
RMM:   4    -0.116379431802E+04   -0.10874E-02   -0.10179E-02  1894   0.870E-02    0.251E-01
RMM:   5    -0.116379433178E+04   -0.13759E-04   -0.12257E-03  1692   0.385E-02    0.131E-01
RMM:   6    -0.116379427061E+04    0.61175E-04   -0.41910E-04  1652   0.249E-02    0.770E-02
RMM:   7    -0.116379435090E+04   -0.80295E-04   -0.92501E-05  1630   0.143E-02    0.319E-02
RMM:   8    -0.116379436285E+04   -0.11949E-04   -0.31134E-05  1614   0.714E-03    0.237E-02
RMM:   9    -0.116379437291E+04   -0.10057E-04   -0.12541E-05  1557   0.484E-03    0.118E-02
RMM:  10    -0.116379437540E+04   -0.24907E-05   -0.42303E-06  1217   0.280E-03    0.662E-03
RMM:  11    -0.116379437614E+04   -0.73865E-06   -0.14696E-06  1090   0.173E-03
  10 F= -.11637944E+04 E0= -.11637944E+04  d E =-.500928E-02  mag=     4.0000
       N       E                     dE             d eps       ncg     rms          rms(c)
DAV:   1    -0.116379127237E+04    0.31030E-02   -0.12197E-01  1984   0.923E-01    0.258E-01
RMM:   2    -0.116379351949E+04   -0.22471E-02   -0.20809E-02  1703   0.129E-01    0.163E-01
RMM:   3    -0.116379446302E+04   -0.94352E-03   -0.66031E-03  1750   0.515E-02    0.531E-02
RMM:   4    -0.116379450306E+04   -0.40045E-04   -0.36293E-04  1829   0.167E-02    0.459E-02
RMM:   5    -0.116379449771E+04    0.53539E-05   -0.74204E-05  1627   0.933E-03    0.186E-02
RMM:   6    -0.116379450330E+04   -0.55880E-05   -0.15086E-05  1602   0.478E-03    0.109E-02
RMM:   7    -0.116379451053E+04   -0.72358E-05   -0.42820E-06  1160   0.294E-03    0.664E-03
RMM:   8    -0.116379451202E+04   -0.14852E-05   -0.13490E-06  1061   0.161E-03    0.412E-03
RMM:   9    -0.116379451239E+04   -0.37039E-06   -0.49046E-07  1025   0.100E-03
  11 F= -.11637945E+04 E0= -.11637945E+04  d E =-.514552E-02  mag=     4.0000
       N       E                     dE             d eps       ncg     rms          rms(c)
DAV:   1    -0.116375338915E+04    0.41123E-01   -0.17736E+00  1888   0.351E+00    0.952E-01
RMM:   2    -0.116378465694E+04   -0.31268E-01   -0.28581E-01  1694   0.495E-01    0.603E-01
RMM:   3    -0.116379691855E+04   -0.12262E-01   -0.89096E-02  1747   0.198E-01    0.213E-01
RMM:   4    -0.116379742193E+04   -0.50339E-03   -0.52355E-03  1881   0.658E-02    0.182E-01
RMM:   5    -0.116379734051E+04    0.81427E-04   -0.79669E-04  1645   0.330E-02    0.891E-02
RMM:   6    -0.116379731597E+04    0.24541E-04   -0.29970E-04  1627   0.222E-02    0.485E-02
RMM:   7    -0.116379737445E+04   -0.58483E-04   -0.56935E-05  1619   0.113E-02    0.255E-02
RMM:   8    -0.116379738370E+04   -0.92556E-05   -0.23234E-05  1575   0.653E-03    0.173E-02
RMM:   9    -0.116379738752E+04   -0.38111E-05   -0.89294E-06  1602   0.399E-03    0.988E-03
RMM:  10    -0.116379738859E+04   -0.10704E-05   -0.42007E-06  1269   0.274E-03    0.456E-03
RMM:  11    -0.116379738905E+04   -0.46376E-06   -0.10772E-06  1048   0.151E-03
  12 F= -.11637974E+04 E0= -.11637974E+04  d E =-.287666E-02  mag=     4.0000
       N       E                     dE             d eps       ncg     rms          rms(c)
DAV:   1    -0.116379727211E+04    0.11648E-03   -0.50507E-03  2016   0.187E-01    0.506E-02
RMM:   2    -0.116379735417E+04   -0.82064E-04   -0.80955E-04  1690   0.266E-02    0.321E-02
RMM:   3    -0.116379739463E+04   -0.40454E-04   -0.25192E-04  1616   0.106E-02    0.112E-02
RMM:   4    -0.116379739656E+04   -0.19324E-05   -0.15398E-05  1230   0.363E-03    0.967E-03
RMM:   5    -0.116379739575E+04    0.80757E-06   -0.37564E-06  1118   0.220E-03
  13 F= -.11637974E+04 E0= -.11637974E+04  d E =-.288337E-02  mag=     4.0000
       N       E                     dE             d eps       ncg     rms          rms(c)
DAV:   1    -0.116378554083E+04    0.11856E-01   -0.65971E-01  1888   0.209E+00    0.528E-01
RMM:   2    -0.116379517209E+04   -0.96313E-02   -0.89069E-02  1694   0.296E-01    0.339E-01
RMM:   3    -0.116379893789E+04   -0.37658E-02   -0.27650E-02  1737   0.120E-01    0.128E-01
RMM:   4    -0.116379907252E+04   -0.13463E-03   -0.15850E-03  1857   0.400E-02    0.110E-01
RMM:   5    -0.116379900146E+04    0.71055E-04   -0.44616E-04  1598   0.261E-02    0.405E-02
RMM:   6    -0.116379902376E+04   -0.22293E-04   -0.10710E-04  1627   0.141E-02    0.265E-02
RMM:   7    -0.116379904444E+04   -0.20679E-04   -0.19754E-05  1565   0.684E-03    0.157E-02
RMM:   8    -0.116379904903E+04   -0.45990E-05   -0.84354E-06  1526   0.394E-03    0.106E-02
RMM:   9    -0.116379905161E+04   -0.25736E-05   -0.42168E-06  1360   0.274E-03    0.551E-03
RMM:  10    -0.116379905213E+04   -0.52564E-06   -0.15816E-06  1057   0.180E-03
  14 F= -.11637991E+04 E0= -.11637991E+04  d E =-.165638E-02  mag=     4.0000
       N       E                     dE             d eps       ncg     rms          rms(c)
DAV:   1    -0.116379901127E+04    0.40336E-04   -0.23600E-03  2080   0.124E-01    0.308E-02
RMM:   2    -0.116379904226E+04   -0.30988E-04   -0.31736E-04  1695   0.176E-02    0.200E-02
RMM:   3    -0.116379905819E+04   -0.15932E-04   -0.97804E-05  1492   0.720E-03    0.852E-03
RMM:   4    -0.116379905901E+04   -0.81382E-06   -0.64894E-06  1170   0.248E-03
  15 F= -.11637991E+04 E0= -.11637991E+04  d E =-.166325E-02  mag=     4.0000
       N       E                     dE             d eps       ncg     rms          rms(c)
DAV:   1    -0.116379618253E+04    0.28757E-02   -0.29715E-01  1792   0.130E+00    0.291E-01
RMM:   2    -0.116379902508E+04   -0.28425E-02   -0.27251E-02  1690   0.180E-01    0.192E-01
RMM:   3    -0.116380012284E+04   -0.10978E-02   -0.82897E-03  1725   0.744E-02    0.839E-02
RMM:   4    -0.116380016279E+04   -0.39947E-04   -0.54762E-04  1847   0.261E-02    0.718E-02
RMM:   5    -0.116380014298E+04    0.19808E-04   -0.22354E-04  1569   0.196E-02    0.235E-02
RMM:   6    -0.116380016323E+04   -0.20248E-04   -0.51526E-05  1686   0.998E-03    0.170E-02
RMM:   7    -0.116380016968E+04   -0.64532E-05   -0.77001E-06  1467   0.438E-03    0.115E-02
RMM:   8    -0.116380017307E+04   -0.33910E-05   -0.44284E-06  1321   0.290E-03    0.688E-03
RMM:   9    -0.116380017434E+04   -0.12709E-05   -0.25041E-06  1125   0.210E-03    0.353E-03
RMM:  10    -0.116380017467E+04   -0.32192E-06   -0.11645E-06  1039   0.151E-03
  16 F= -.11638002E+04 E0= -.11638002E+04  d E =-.111566E-02  mag=     4.0000
       N       E                     dE             d eps       ncg     rms          rms(c)
DAV:   1    -0.116379976841E+04    0.40594E-03   -0.36908E-02  1856   0.457E-01    0.102E-01
RMM:   2    -0.116380011022E+04   -0.34181E-03   -0.33732E-03  1690   0.634E-02    0.671E-02
RMM:   3    -0.116380025258E+04   -0.14235E-03   -0.10232E-03  1727   0.262E-02    0.295E-02
RMM:   4    -0.116380025873E+04   -0.61547E-05   -0.72337E-05  1777   0.926E-03    0.253E-02
RMM:   5    -0.116380025577E+04    0.29629E-05   -0.27176E-05  1559   0.687E-03    0.873E-03
RMM:   6    -0.116380025950E+04   -0.37331E-05   -0.73270E-06  1506   0.369E-03    0.606E-03
RMM:   7    -0.116380026081E+04   -0.13087E-05   -0.10433E-06  1042   0.164E-03    0.421E-03
RMM:   8    -0.116380026141E+04   -0.59894E-06   -0.60264E-07  1031   0.112E-03
  17 F= -.11638003E+04 E0= -.11638003E+04  d E =-.120240E-02  mag=     4.0000
       N       E                     dE             d eps       ncg     rms          rms(c)
DAV:   1    -0.116379942366E+04    0.83715E-03   -0.16811E-01  1760   0.929E-01    0.195E-01
RMM:   2    -0.116380067941E+04   -0.12558E-02   -0.12353E-02  1700   0.127E-01    0.130E-01
RMM:   3    -0.116380117031E+04   -0.49090E-03   -0.37196E-03  1722   0.527E-02    0.602E-02
RMM:   4    -0.116380118978E+04   -0.19466E-04   -0.26016E-04  1831   0.189E-02    0.514E-02
RMM:   5    -0.116380118716E+04    0.26221E-05   -0.11126E-04  1559   0.141E-02    0.167E-02
RMM:   6    -0.116380119948E+04   -0.12324E-04   -0.24897E-05  1643   0.705E-03    0.114E-02
RMM:   7    -0.116380120370E+04   -0.42172E-05   -0.43784E-06  1229   0.316E-03    0.758E-03
RMM:   8    -0.116380120564E+04   -0.19447E-05   -0.17038E-06  1068   0.189E-03    0.472E-03
RMM:   9    -0.116380120598E+04   -0.33422E-06   -0.14296E-06  1031   0.156E-03
  18 F= -.11638012E+04 E0= -.11638012E+04  d E =-.944570E-03  mag=     4.0000
