       N       E                     dE             d eps       ncg     rms          rms(c)
DAV:   1     0.487714614769E+04    0.48771E+04   -0.17325E+05  1872   0.909E+02
DAV:   2    -0.512811597652E+02   -0.49284E+04   -0.44853E+04  2520   0.205E+02
DAV:   3    -0.119009323712E+04   -0.11388E+04   -0.11342E+04  2160   0.110E+02
DAV:   4    -0.123527009653E+04   -0.45177E+02   -0.44968E+02  2016   0.288E+01
DAV:   5    -0.123644927723E+04   -0.11792E+01   -0.11766E+01  2340   0.440E+00    0.681E+01
RMM:   6    -0.121982826493E+04    0.16621E+02   -0.33116E+01  1803   0.519E+00    0.555E+01
RMM:   7    -0.120235556063E+04    0.17473E+02   -0.10158E+01  1640   0.346E+00    0.448E+01
RMM:   8    -0.117330964338E+04    0.29046E+02   -0.47982E+01  1592   0.779E+00    0.276E+01
RMM:   9    -0.116614116304E+04    0.71685E+01   -0.15676E+01  1622   0.446E+00    0.205E+01
RMM:  10    -0.116599239795E+04    0.14877E+00   -0.10013E+01  1644   0.352E+00    0.109E+01
RMM:  11    -0.116670411337E+04   -0.71172E+00   -0.33069E+00  1614   0.212E+00    0.746E+00
RMM:  12    -0.116604859239E+04    0.65552E+00   -0.20900E+00  1647   0.147E+00    0.328E+00
RMM:  13    -0.116580138163E+04    0.24721E+00   -0.29540E-01  1676   0.663E-01    0.225E+00
RMM:  14    -0.116573115951E+04    0.70222E-01   -0.26879E-01  1686   0.522E-01    0.926E-01
RMM:  15    -0.116572050889E+04    0.10651E-01   -0.30148E-02  1678   0.234E-01    0.550E-01
RMM:  16    -0.116571890388E+04    0.16050E-02   -0.66041E-03  1761   0.974E-02    0.398E-01
RMM:  17    -0.116571827141E+04    0.63247E-03   -0.41097E-03  1735   0.715E-02    0.261E-01
RMM:  18    -0.116571839084E+04   -0.11942E-03   -0.13837E-03  1509   0.428E-02    0.158E-01
RMM:  19    -0.116571823979E+04    0.15105E-03   -0.10154E-03  1579   0.339E-02    0.105E-01
RMM:  20    -0.116571825710E+04   -0.17311E-04   -0.23029E-04  1163   0.193E-02
   1 F= -.11729334E+04 E0= -.11729334E+04  d E =-.117293E+04  mag=    -1.0097
       N       E                     dE             d eps       ncg     rms          rms(c)
DAV:   1    -0.116571710653E+04    0.11333E-02   -0.40392E-01  1692   0.104E+00    0.179E-01
RMM:   2    -0.116571820042E+04   -0.10939E-02   -0.14865E-02  1795   0.175E-01    0.191E-01
RMM:   3    -0.116571809385E+04    0.10657E-03   -0.99879E-04  1584   0.486E-02    0.236E-01
RMM:   4    -0.116571809895E+04   -0.51012E-05   -0.12550E-04  1098   0.164E-02
   2 F= -.11729334E+04 E0= -.11729334E+04  d E =-.205824E-04  mag=    -1.0051
       N       E                     dE             d eps       ncg     rms          rms(c)
DAV:   1    -0.116571844161E+04   -0.34776E-03   -0.85221E-02  1620   0.475E-01    0.162E-01
RMM:   2    -0.116571874710E+04   -0.30549E-03   -0.31184E-03  1738   0.817E-02    0.888E-02
RMM:   3    -0.116571872735E+04    0.19744E-04   -0.22350E-04  1115   0.243E-02
   3 F= -.11729339E+04 E0= -.11729339E+04  d E =-.566350E-03  mag=    -1.0005
