       N       E                     dE             d eps       ncg     rms          rms(c)
DAV:   1     0.486466153446E+04    0.48647E+04   -0.16925E+05  1836   0.903E+02
DAV:   2    -0.687192477513E+02   -0.49334E+04   -0.44987E+04  2556   0.206E+02
DAV:   3    -0.118412058479E+04   -0.11154E+04   -0.11106E+04  2160   0.108E+02
DAV:   4    -0.122783059482E+04   -0.43710E+02   -0.43497E+02  2052   0.282E+01
DAV:   5    -0.122895910047E+04   -0.11285E+01   -0.11264E+01  2376   0.418E+00    0.637E+01
RMM:   6    -0.121051524529E+04    0.18444E+02   -0.17030E+01  1584   0.408E+00    0.509E+01
RMM:   7    -0.118746386472E+04    0.23051E+02   -0.21135E+01  1584   0.526E+00    0.376E+01
RMM:   8    -0.116639101920E+04    0.21073E+02   -0.28921E+01  1584   0.614E+00    0.257E+01
RMM:   9    -0.116153934098E+04    0.48517E+01   -0.29065E+01  1584   0.611E+00    0.108E+01
RMM:  10    -0.116256257845E+04   -0.10232E+01   -0.38488E+00  1594   0.231E+00    0.732E+00
RMM:  11    -0.116163980465E+04    0.92277E+00   -0.31240E+00  1584   0.194E+00    0.282E+00
RMM:  12    -0.116156403184E+04    0.75773E-01   -0.15130E-01  1594   0.419E-01    0.963E-01
RMM:  13    -0.116154746209E+04    0.16570E-01   -0.95884E-02  1584   0.336E-01    0.373E-01
RMM:  14    -0.116154598671E+04    0.14754E-02   -0.87517E-03  1606   0.111E-01    0.250E-01
RMM:  15    -0.116154560189E+04    0.38482E-03   -0.22776E-03  1583   0.517E-02    0.155E-01
RMM:  16    -0.116154606982E+04   -0.46793E-03   -0.95184E-04  1583   0.363E-02    0.118E-01
RMM:  17    -0.116154592516E+04    0.14466E-03   -0.93118E-04  1559   0.335E-02    0.449E-02
RMM:  18    -0.116154600021E+04   -0.75048E-04   -0.53265E-05  1028   0.107E-02
   1 F= -.11688142E+04 E0= -.11688142E+04  d E =-.116881E+04  mag=    -0.0024
       N       E                     dE             d eps       ncg     rms          rms(c)
DAV:   1    -0.116154000679E+04    0.59184E-02   -0.22287E+00  1620   0.215E+00    0.564E-01
RMM:   2    -0.116154377331E+04   -0.37665E-02   -0.53394E-02  1584   0.305E-01    0.525E-01
RMM:   3    -0.116154326404E+04    0.50927E-03   -0.34898E-03  1684   0.674E-02    0.496E-01
RMM:   4    -0.116154102429E+04    0.22397E-02   -0.67321E-03  1584   0.908E-02    0.193E-01
RMM:   5    -0.116154117069E+04   -0.14640E-03   -0.15870E-03  1584   0.451E-02    0.951E-02
RMM:   6    -0.116154097492E+04    0.19577E-03   -0.94649E-04  1504   0.296E-02    0.407E-02
RMM:   7    -0.116154097854E+04   -0.36173E-05   -0.88199E-05  1025   0.106E-02
   2 F= -.11688100E+04 E0= -.11688100E+04  d E =0.417946E-02  mag=     0.0003
       N       E                     dE             d eps       ncg     rms          rms(c)
DAV:   1    -0.116154869583E+04   -0.77209E-02   -0.84012E-01  1656   0.131E+00    0.342E-01
RMM:   2    -0.116154977306E+04   -0.10772E-02   -0.17173E-02  1584   0.180E-01    0.321E-01
RMM:   3    -0.116154952995E+04    0.24311E-03   -0.10838E-03  1437   0.384E-02    0.302E-01
RMM:   4    -0.116154867466E+04    0.85529E-03   -0.29536E-03  1584   0.598E-02    0.113E-01
RMM:   5    -0.116154871561E+04   -0.40947E-04   -0.45311E-04  1386   0.250E-02
   3 F= -.11688172E+04 E0= -.11688172E+04  d E =-.303858E-02  mag=     0.0001
       N       E                     dE             d eps       ncg     rms          rms(c)
DAV:   1    -0.116155037235E+04   -0.16977E-02   -0.69220E-01  1728   0.121E+00    0.296E-01
RMM:   2    -0.116155076440E+04   -0.39205E-03   -0.12098E-02  1584   0.161E-01    0.260E-01
RMM:   3    -0.116155021880E+04    0.54560E-03   -0.78857E-04  1443   0.360E-02    0.233E-01
RMM:   4    -0.116154921889E+04    0.99991E-03   -0.31972E-03  1584   0.612E-02    0.941E-02
RMM:   5    -0.116154921945E+04   -0.55991E-06   -0.29694E-04  1198   0.209E-02
   4 F= -.11688175E+04 E0= -.11688175E+04  d E =-.280117E-03  mag=     0.0000
       N       E                     dE             d eps       ncg     rms          rms(c)
DAV:   1    -0.116155031243E+04   -0.10935E-02   -0.14636E-01  1728   0.556E-01    0.128E-01
RMM:   2    -0.116155036498E+04   -0.52547E-04   -0.24678E-03  1584   0.728E-02    0.114E-01
RMM:   3    -0.116155022685E+04    0.13813E-03   -0.15017E-04  1054   0.168E-02    0.100E-01
RMM:   4    -0.116154999716E+04    0.22969E-03   -0.79486E-04  1563   0.309E-02    0.395E-02
RMM:   5    -0.116154999729E+04   -0.13468E-06   -0.50776E-05   996   0.945E-03
   5 F= -.11688184E+04 E0= -.11688184E+04  d E =-.116037E-02  mag=     0.0000
       N       E                     dE             d eps       ncg     rms          rms(c)
DAV:   1    -0.116155085874E+04   -0.86159E-03   -0.37181E-01  1728   0.879E-01    0.153E-01
RMM:   2    -0.116155117929E+04   -0.32055E-03   -0.63313E-03  1584   0.120E-01    0.142E-01
RMM:   3    -0.116155100533E+04    0.17396E-03   -0.32724E-04  1206   0.253E-02    0.130E-01
RMM:   4    -0.116155062502E+04    0.38031E-03   -0.13820E-03  1568   0.398E-02    0.546E-02
RMM:   5    -0.116155061929E+04    0.57321E-05   -0.10341E-04  1048   0.130E-02
   6 F= -.11688190E+04 E0= -.11688190E+04  d E =-.654605E-03  mag=     0.0000
       N       E                     dE             d eps       ncg     rms          rms(c)
DAV:   1    -0.116155080543E+04   -0.18041E-03   -0.30528E-02  1728   0.252E-01    0.396E-02
RMM:   2    -0.116155082089E+04   -0.15463E-04   -0.44829E-04  1302   0.324E-02
   7 F= -.11688192E+04 E0= -.11688192E+04  d E =-.845740E-03  mag=     0.0000
