       N       E                     dE             d eps       ncg     rms          rms(c)
DAV:   1     0.517286267936E+04    0.51729E+04   -0.17627E+05  1752   0.993E+02
DAV:   2     0.930826071873E+02   -0.50798E+04   -0.46406E+04  2312   0.228E+02
DAV:   3    -0.119081187334E+04   -0.12839E+04   -0.12697E+04  1920   0.122E+02
DAV:   4    -0.125232317501E+04   -0.61511E+02   -0.60993E+02  1864   0.350E+01
DAV:   5    -0.125385291234E+04   -0.15297E+01   -0.15224E+01  2032   0.509E+00    0.679E+01
RMM:   6    -0.123777078159E+04    0.16082E+02   -0.91739E+00  1480   0.366E+00    0.551E+01
RMM:   7    -0.121156188721E+04    0.26209E+02   -0.88241E+01  1516   0.113E+01    0.419E+01
RMM:   8    -0.120429065496E+04    0.72712E+01   -0.80266E+00  1512   0.457E+00    0.380E+01
RMM:   9    -0.119624266500E+04    0.80480E+01   -0.25272E+00  1521   0.230E+00    0.356E+01
RMM:  10    -0.119239058481E+04    0.38521E+01   -0.14355E+01  1503   0.341E+00    0.244E+01
RMM:  11    -0.120007703502E+04   -0.76865E+01   -0.33748E+01  1874   0.631E+00    0.213E+01
RMM:  12    -0.120185596725E+04   -0.17789E+01   -0.29001E+00  1514   0.242E+00    0.190E+01
RMM:  13    -0.119630559806E+04    0.55504E+01   -0.84940E+00  1573   0.202E+00    0.124E+01
RMM:  14    -0.119229199568E+04    0.40136E+01   -0.19096E+00  1529   0.105E+00    0.919E+00
RMM:  15    -0.118731168413E+04    0.49803E+01   -0.46324E+00  1658   0.162E+00    0.575E+00
RMM:  16    -0.118600728984E+04    0.13044E+01   -0.10261E+00  1533   0.814E-01    0.797E+00
RMM:  17    -0.118599047009E+04    0.16820E-01   -0.72821E-02  1612   0.330E-01    0.770E+00
RMM:  18    -0.118593729482E+04    0.53175E-01   -0.98427E-02  1568   0.209E-01    0.740E+00
RMM:  19    -0.118584444039E+04    0.92854E-01   -0.54636E-01  1549   0.324E-01    0.525E+00
RMM:  20    -0.118754118556E+04   -0.16967E+01   -0.31186E-01  1962   0.489E-01    0.133E+01
RMM:  21    -0.118736589107E+04    0.17529E+00   -0.20796E-02  1602   0.182E-01    0.116E+01
RMM:  22    -0.118740580450E+04   -0.39913E-01   -0.11348E-02  1541   0.103E-01    0.112E+01
RMM:  23    -0.118673828717E+04    0.66752E+00   -0.13663E-01  1639   0.178E-01    0.993E+00
RMM:  24    -0.118571279484E+04    0.10255E+01   -0.39812E-01  2046   0.271E-01    0.449E+00
RMM:  25    -0.118572581548E+04   -0.13021E-01   -0.10505E-02  1538   0.103E-01    0.453E+00
RMM:  26    -0.118571512615E+04    0.10689E-01   -0.68985E-02  1925   0.162E-01    0.866E+00
RMM:  27    -0.118592732326E+04   -0.21220E+00   -0.14170E-02  1584   0.994E-02    0.842E+00
RMM:  28    -0.118601962638E+04   -0.92303E-01   -0.61645E-02  2041   0.162E-01    0.698E+00
RMM:  29    -0.118583053084E+04    0.18910E+00   -0.35803E-02  1797   0.113E-01    0.620E+00
RMM:  30    -0.118572000234E+04    0.11053E+00   -0.12201E-02  1632   0.662E-02    0.356E+00
RMM:  31    -0.118571861381E+04    0.13885E-02   -0.38149E-03  1522   0.598E-02    0.303E+00
RMM:  32    -0.118572421335E+04   -0.55995E-02   -0.32182E-04  1549   0.221E-02    0.319E+00
RMM:  33    -0.118572013798E+04    0.40754E-02   -0.19230E-04  1529   0.163E-02    0.273E+00
RMM:  34    -0.118569915859E+04    0.20979E-01   -0.43980E-03  2234   0.470E-02    0.125E+00
RMM:  35    -0.118572653383E+04   -0.27375E-01   -0.13483E-03  1689   0.357E-02    0.246E+00
RMM:  36    -0.118572639309E+04    0.14074E-03   -0.46093E-04  1713   0.252E-02    0.256E+00
RMM:  37    -0.118573027077E+04   -0.38777E-02   -0.19914E-03  2267   0.453E-02    0.314E+00
RMM:  38    -0.118570504537E+04    0.25225E-01   -0.22347E-03  2171   0.382E-02    0.153E+00
RMM:  39    -0.118571725425E+04   -0.12209E-01   -0.80836E-04  1883   0.290E-02    0.112E+00
RMM:  40    -0.118571618308E+04    0.10712E-02   -0.63094E-04  1774   0.260E-02    0.116E+00
RMM:  41    -0.118572394316E+04   -0.77601E-02   -0.57580E-04  1808   0.266E-02    0.432E-01
RMM:  42    -0.118572414651E+04   -0.20335E-03   -0.18618E-04  1580   0.179E-02    0.680E-01
RMM:  43    -0.118572410639E+04    0.40115E-04   -0.11763E-04  1597   0.129E-02    0.402E-01
RMM:  44    -0.118572392368E+04    0.18271E-03   -0.13169E-04  1613   0.129E-02    0.443E-01
RMM:  45    -0.118572494092E+04   -0.10172E-02   -0.10288E-04  1715   0.100E-02    0.956E-02
RMM:  46    -0.118572519136E+04   -0.25043E-03   -0.30609E-05  1328   0.698E-03    0.780E-02
RMM:  47    -0.118572539842E+04   -0.20706E-03   -0.12018E-05  1099   0.339E-03    0.142E-01
RMM:  48    -0.118572535131E+04    0.47103E-04   -0.36687E-06  1000   0.215E-03    0.499E-02
RMM:  49    -0.118572546834E+04   -0.11703E-03   -0.32014E-06   976   0.184E-03    0.807E-02
RMM:  50    -0.118572539405E+04    0.74288E-04   -0.18356E-06   965   0.151E-03    0.645E-02
RMM:  51    -0.118572544217E+04   -0.48115E-04   -0.13777E-06   964   0.139E-03    0.467E-02
RMM:  52    -0.118572544629E+04   -0.41231E-05   -0.89599E-07   923   0.120E-03    0.431E-02
RMM:  53    -0.118572543128E+04    0.15006E-04   -0.28006E-07   662   0.583E-04    0.377E-02
RMM:  54    -0.118572544161E+04   -0.10326E-04   -0.23670E-07   557   0.448E-04    0.365E-02
RMM:  55    -0.118572544660E+04   -0.49938E-05   -0.26712E-07   599   0.445E-04    0.329E-02
RMM:  56    -0.118572546338E+04   -0.16773E-04   -0.31299E-07   644   0.529E-04    0.368E-02
RMM:  57    -0.118572546448E+04   -0.11021E-05   -0.59696E-08   522   0.376E-04    0.352E-02
RMM:  58    -0.118572546397E+04    0.51272E-06   -0.91808E-08   446   0.330E-04
   1 F= -.11930346E+04 E0= -.11930145E+04  d E =-.119303E+04  mag=    -0.7892
       N       E                     dE             d eps       ncg     rms          rms(c)
DAV:   1    -0.118572661722E+04   -0.11527E-02   -0.26696E-02  1606   0.210E-01    0.888E-01
RMM:   2    -0.118574882883E+04   -0.22212E-01   -0.82858E-03  1489   0.481E-02    0.215E+00
RMM:   3    -0.118572510274E+04    0.23726E-01   -0.23801E-03  1499   0.349E-02    0.145E+00
RMM:   4    -0.118572911520E+04   -0.40125E-02   -0.14943E-04  1504   0.104E-02    0.182E+00
RMM:   5    -0.118572206745E+04    0.70477E-02   -0.65310E-04  1448   0.116E-02    0.713E-01
RMM:   6    -0.118572470181E+04   -0.26344E-02   -0.17890E-04  1256   0.124E-02    0.702E-01
RMM:   7    -0.118572508015E+04   -0.37834E-03   -0.53689E-05  1076   0.521E-03    0.609E-01
RMM:   8    -0.118572520092E+04   -0.12077E-03   -0.72874E-05  1192   0.491E-03    0.786E-02
RMM:   9    -0.118572606527E+04   -0.86435E-03   -0.80077E-05  1386   0.822E-03    0.340E-01
RMM:  10    -0.118572583099E+04    0.23428E-03   -0.26345E-05  1388   0.521E-03    0.611E-02
RMM:  11    -0.118572602914E+04   -0.19815E-03   -0.18471E-05  1092   0.487E-03    0.444E-02
RMM:  12    -0.118572600322E+04    0.25915E-04   -0.43899E-06   985   0.197E-03    0.381E-02
RMM:  13    -0.118572605097E+04   -0.47742E-04   -0.19041E-06   925   0.133E-03    0.574E-02
RMM:  14    -0.118572603076E+04    0.20202E-04   -0.17980E-06   925   0.143E-03    0.212E-02
RMM:  15    -0.118572609363E+04   -0.62868E-04   -0.21585E-06   915   0.124E-03    0.110E-02
RMM:  16    -0.118572609631E+04   -0.26789E-05   -0.22251E-07   625   0.474E-04    0.908E-03
RMM:  17    -0.118572610464E+04   -0.83345E-05   -0.24363E-07   618   0.498E-04    0.813E-03
RMM:  18    -0.118572610584E+04   -0.11955E-05   -0.68550E-08   411   0.371E-04    0.412E-03
RMM:  19    -0.118572611043E+04   -0.45945E-05   -0.77006E-08   490   0.401E-04    0.753E-03
RMM:  20    -0.118572610944E+04    0.99094E-06   -0.25015E-08   391   0.348E-04
   2 F= -.11930352E+04 E0= -.11930151E+04  d E =-.624405E-03  mag=    -0.7843
       N       E                     dE             d eps       ncg     rms          rms(c)
DAV:   1    -0.118572621914E+04   -0.10870E-03   -0.19373E-03  1588   0.563E-02    0.233E-01
RMM:   2    -0.118572935792E+04   -0.31388E-02   -0.59301E-04  1482   0.132E-02    0.152E+00
RMM:   3    -0.118572320388E+04    0.61540E-02   -0.36483E-04  1473   0.161E-02    0.179E-01
RMM:   4    -0.118572569503E+04   -0.24911E-02   -0.16201E-04  1176   0.106E-02    0.118E-01
RMM:   5    -0.118572596671E+04   -0.27169E-03   -0.28991E-05  1006   0.455E-03    0.112E-01
RMM:   6    -0.118572598982E+04   -0.23104E-04   -0.92175E-06   914   0.175E-03    0.619E-02
RMM:   7    -0.118572602569E+04   -0.35876E-04   -0.18991E-05   945   0.219E-03    0.200E-01
RMM:   8    -0.118572585207E+04    0.17363E-03   -0.38169E-05   961   0.384E-03    0.146E-01
RMM:   9    -0.118572593834E+04   -0.86277E-04   -0.10595E-05   939   0.188E-03    0.449E-02
RMM:  10    -0.118572616129E+04   -0.22294E-03   -0.18528E-05   960   0.289E-03    0.330E-02
RMM:  11    -0.118572616084E+04    0.45126E-06   -0.15061E-06   912   0.118E-03
   3 F= -.11930353E+04 E0= -.11930152E+04  d E =-.670109E-03  mag=    -0.7844
