       N       E                     dE             d eps       ncg     rms          rms(c)
DAV:   1     0.478823996002E+04    0.47882E+04   -0.17152E+05  1872   0.902E+02
DAV:   2    -0.892739216378E+02   -0.48775E+04   -0.44377E+04  2520   0.206E+02
DAV:   3    -0.119051773549E+04   -0.11012E+04   -0.10956E+04  2124   0.107E+02
DAV:   4    -0.123449262351E+04   -0.43975E+02   -0.43787E+02  2052   0.282E+01
DAV:   5    -0.123563075571E+04   -0.11381E+01   -0.11361E+01  2304   0.424E+00    0.709E+01
RMM:   6    -0.121837721495E+04    0.17254E+02   -0.19723E+01  1605   0.433E+00    0.493E+01
RMM:   7    -0.120067704450E+04    0.17700E+02   -0.12704E+01  1584   0.409E+00    0.383E+01
RMM:   8    -0.117306120222E+04    0.27616E+02   -0.44081E+01  1584   0.756E+00    0.242E+01
RMM:   9    -0.116906500649E+04    0.39962E+01   -0.18744E+01  1586   0.500E+00    0.171E+01
RMM:  10    -0.116886357903E+04    0.20143E+00   -0.52828E+00  1601   0.272E+00    0.963E+00
RMM:  11    -0.116942738613E+04   -0.56381E+00   -0.11406E+00  1610   0.128E+00    0.741E+00
RMM:  12    -0.116873905630E+04    0.68833E+00   -0.17020E+00  1585   0.142E+00    0.286E+00
RMM:  13    -0.116867467483E+04    0.64381E-01   -0.26749E-01  1584   0.591E-01    0.260E+00
RMM:  14    -0.116863360718E+04    0.41068E-01   -0.92241E-02  1614   0.302E-01    0.735E-01
RMM:  15    -0.116863082939E+04    0.27778E-02   -0.13023E-02  1598   0.119E-01    0.386E-01
RMM:  16    -0.116863025248E+04    0.57691E-03   -0.29193E-03  1569   0.533E-02    0.221E-01
RMM:  17    -0.116863072458E+04   -0.47209E-03   -0.15763E-03  1591   0.443E-02    0.160E-01
RMM:  18    -0.116863075855E+04   -0.33975E-04   -0.36848E-04  1193   0.218E-02
   1 F= -.11756565E+04 E0= -.11756565E+04  d E =-.117566E+04  mag=     1.0043
       N       E                     dE             d eps       ncg     rms          rms(c)
DAV:   1    -0.116863039706E+04    0.32752E-03   -0.36829E-01  1872   0.106E+00    0.218E-01
RMM:   2    -0.116863148115E+04   -0.10841E-02   -0.15474E-02  1592   0.159E-01    0.205E-01
RMM:   3    -0.116863106825E+04    0.41290E-03   -0.91561E-04  1473   0.381E-02    0.185E-01
RMM:   4    -0.116863026065E+04    0.80760E-03   -0.13814E-03  1583   0.412E-02    0.105E-01
RMM:   5    -0.116863013238E+04    0.12827E-03   -0.82055E-04  1584   0.327E-02    0.521E-02
RMM:   6    -0.116863011777E+04    0.14610E-04   -0.50847E-05  1025   0.101E-02
   2 F= -.11756562E+04 E0= -.11756562E+04  d E =0.328992E-03  mag=     1.0004
       N       E                     dE             d eps       ncg     rms          rms(c)
DAV:   1    -0.116863180330E+04   -0.16709E-02   -0.11007E-01  1800   0.574E-01    0.115E-01
RMM:   2    -0.116863193446E+04   -0.13116E-03   -0.35626E-03  1586   0.790E-02    0.107E-01
RMM:   3    -0.116863175355E+04    0.18091E-03   -0.19956E-04  1094   0.187E-02    0.945E-02
RMM:   4    -0.116863144028E+04    0.31327E-03   -0.53849E-04  1534   0.260E-02    0.506E-02
RMM:   5    -0.116863138895E+04    0.51331E-04   -0.22889E-04  1140   0.183E-02
   3 F= -.11756573E+04 E0= -.11756573E+04  d E =-.771000E-03  mag=     1.0000
