       N       E                     dE             d eps       ncg     rms          rms(c)
DAV:   1     0.491862811618E+04    0.49186E+04   -0.17877E+05  1856   0.959E+02
DAV:   2    -0.217572340803E+02   -0.49404E+04   -0.45225E+04  2432   0.214E+02
DAV:   3    -0.120292867420E+04   -0.11812E+04   -0.11758E+04  2016   0.114E+02
DAV:   4    -0.125269282940E+04   -0.49764E+02   -0.49441E+02  1888   0.306E+01
DAV:   5    -0.125395784040E+04   -0.12650E+01   -0.12616E+01  2272   0.456E+00    0.742E+01
RMM:   6    -0.124007191910E+04    0.13886E+02   -0.89461E+00  1568   0.364E+00    0.588E+01
RMM:   7    -0.120038886605E+04    0.39683E+02   -0.89576E+01  1668   0.111E+01    0.304E+01
RMM:   8    -0.119297820705E+04    0.74107E+01   -0.17804E+01  1576   0.599E+00    0.235E+01
RMM:   9    -0.118945759829E+04    0.35206E+01   -0.30811E+01  1568   0.700E+00    0.136E+01
RMM:  10    -0.118984528507E+04   -0.38769E+00   -0.70318E+00  1565   0.383E+00    0.874E+00
RMM:  11    -0.118924516267E+04    0.60012E+00   -0.23220E+00  1591   0.181E+00    0.644E+00
RMM:  12    -0.118864006061E+04    0.60510E+00   -0.91278E-01  1575   0.121E+00    0.391E+00
RMM:  13    -0.118840656056E+04    0.23350E+00   -0.10758E+00  1538   0.131E+00    0.147E+00
RMM:  14    -0.118837559132E+04    0.30969E-01   -0.10313E-01  1541   0.521E-01    0.778E-01
RMM:  15    -0.118837568890E+04   -0.97583E-04   -0.39155E-02  1681   0.263E-01    0.625E-01
RMM:  16    -0.118837657624E+04   -0.88734E-03   -0.75815E-03  1799   0.116E-01    0.648E-01
RMM:  17    -0.118837777269E+04   -0.11964E-02   -0.31768E-03  1689   0.671E-02    0.737E-01
RMM:  18    -0.118837983457E+04   -0.20619E-02   -0.91779E-03  1589   0.110E-01    0.615E-01
RMM:  19    -0.118837663097E+04    0.32036E-02   -0.11523E-02  1693   0.123E-01    0.154E-01
RMM:  20    -0.118837670457E+04   -0.73604E-04   -0.13048E-03  1677   0.469E-02    0.172E-01
RMM:  21    -0.118837676103E+04   -0.56457E-04   -0.81295E-04  1583   0.323E-02    0.111E-01
RMM:  22    -0.118837679121E+04   -0.30180E-04   -0.33995E-04  1860   0.147E-02    0.118E-01
RMM:  23    -0.118837680373E+04   -0.12518E-04   -0.21068E-04  1897   0.855E-03    0.144E-01
RMM:  24    -0.118837675283E+04    0.50900E-04   -0.30213E-04  1691   0.137E-02    0.124E-01
RMM:  25    -0.118837677998E+04   -0.27149E-04   -0.18070E-04  1722   0.666E-03    0.155E-01
RMM:  26    -0.118837679873E+04   -0.18752E-04   -0.12762E-04  1511   0.360E-03    0.213E-01
RMM:  27    -0.118837681206E+04   -0.13328E-04   -0.10034E-04  1261   0.260E-03    0.301E-01
RMM:  28    -0.118837682973E+04   -0.17670E-04   -0.83352E-05  1322   0.300E-03    0.329E-01
RMM:  29    -0.118837683805E+04   -0.83259E-05   -0.86984E-05  1791   0.540E-03    0.336E-01
RMM:  30    -0.118837684511E+04   -0.70593E-05   -0.68448E-05  1486   0.337E-03    0.384E-01
RMM:  31    -0.118837685081E+04   -0.56966E-05   -0.55104E-05  1074   0.167E-03    0.423E-01
RMM:  32    -0.118837685659E+04   -0.57843E-05   -0.57424E-05  1400   0.306E-03    0.428E-01
RMM:  33    -0.118837686161E+04   -0.50199E-05   -0.50601E-05  1059   0.148E-03    0.434E-01
RMM:  34    -0.118837686824E+04   -0.66256E-05   -0.49957E-05  1095   0.164E-03    0.435E-01
RMM:  35    -0.118837687222E+04   -0.39817E-05   -0.47304E-05  1042   0.114E-03    0.434E-01
RMM:  36    -0.118837687695E+04   -0.47259E-05   -0.46229E-05   750   0.764E-04    0.440E-01
RMM:  37    -0.118837688065E+04   -0.37096E-05   -0.46060E-05   762   0.811E-04    0.422E-01
RMM:  38    -0.118837688526E+04   -0.46008E-05   -0.45479E-05   602   0.647E-04    0.425E-01
RMM:  39    -0.118837688982E+04   -0.45608E-05   -0.44816E-05   552   0.601E-04    0.423E-01
RMM:  40    -0.118837689446E+04   -0.46447E-05   -0.44316E-05   593   0.611E-04    0.436E-01
RMM:  41    -0.118837689880E+04   -0.43394E-05   -0.44040E-05   538   0.572E-04    0.434E-01
RMM:  42    -0.118837690309E+04   -0.42858E-05   -0.43577E-05   536   0.562E-04    0.434E-01
RMM:  43    -0.118837690745E+04   -0.43663E-05   -0.43286E-05   528   0.555E-04    0.436E-01
RMM:  44    -0.118837691088E+04   -0.34234E-05   -0.43065E-05   675   0.662E-04    0.413E-01
RMM:  45    -0.118837691354E+04   -0.26596E-05   -0.42642E-05  1008   0.988E-04    0.368E-01
RMM:  46    -0.118837691645E+04   -0.29119E-05   -0.41893E-05   903   0.845E-04    0.323E-01
RMM:  47    -0.118837691950E+04   -0.30541E-05   -0.41328E-05   910   0.836E-04    0.280E-01
RMM:  48    -0.118837692243E+04   -0.29297E-05   -0.40898E-05   943   0.917E-04    0.225E-01
RMM:  49    -0.118837692540E+04   -0.29682E-05   -0.40830E-05   994   0.102E-03    0.160E-01
RMM:  50    -0.118837692870E+04   -0.32990E-05   -0.41068E-05  1011   0.106E-03    0.924E-02
RMM:  51    -0.118837693235E+04   -0.36526E-05   -0.40479E-05   990   0.982E-04    0.446E-02
RMM:  52    -0.118837693618E+04   -0.38246E-05   -0.40359E-05   984   0.895E-04    0.196E-02
RMM:  53    -0.118837694000E+04   -0.38220E-05   -0.39007E-05   926   0.774E-04    0.177E-02
RMM:  54    -0.118837694387E+04   -0.38680E-05   -0.39311E-05   993   0.815E-04    0.294E-02
RMM:  55    -0.118837694778E+04   -0.39101E-05   -0.38836E-05   612   0.571E-04    0.263E-02
RMM:  56    -0.118837695155E+04   -0.37736E-05   -0.38226E-05   593   0.559E-04    0.273E-02
RMM:  57    -0.118837695538E+04   -0.38334E-05   -0.36965E-05   645   0.602E-04    0.897E-03
RMM:  58    -0.118837695914E+04   -0.37586E-05   -0.36949E-05   524   0.496E-04    0.155E-02
RMM:  59    -0.118837696279E+04   -0.36462E-05   -0.36491E-05   486   0.467E-04    0.208E-02
RMM:  60    -0.118837696640E+04   -0.36152E-05   -0.36122E-05   513   0.485E-04    0.290E-02
RMM:  61    -0.118837696996E+04   -0.35620E-05   -0.35834E-05   476   0.456E-04    0.337E-02
RMM:  62    -0.118837697350E+04   -0.35376E-05   -0.35444E-05   470   0.458E-04    0.405E-02
RMM:  63    -0.118837697699E+04   -0.34886E-05   -0.35046E-05   475   0.456E-04    0.465E-02
RMM:  64    -0.118837698045E+04   -0.34613E-05   -0.34784E-05   469   0.454E-04    0.527E-02
RMM:  65    -0.118837698388E+04   -0.34270E-05   -0.34471E-05   463   0.452E-04    0.590E-02
RMM:  66    -0.118837698725E+04   -0.33728E-05   -0.34269E-05   464   0.455E-04    0.653E-02
RMM:  67    -0.118837699061E+04   -0.33595E-05   -0.33830E-05   462   0.453E-04    0.718E-02
RMM:  68    -0.118837699394E+04   -0.33262E-05   -0.33498E-05   455   0.452E-04    0.784E-02
RMM:  69    -0.118837699720E+04   -0.32632E-05   -0.32903E-05   457   0.451E-04    0.850E-02
RMM:  70    -0.118837700043E+04   -0.32338E-05   -0.32583E-05   456   0.450E-04    0.916E-02
RMM:  71    -0.118837700372E+04   -0.32886E-05   -0.32212E-05   562   0.496E-04    0.102E-01
RMM:  72    -0.118837700688E+04   -0.31566E-05   -0.31915E-05   457   0.448E-04    0.109E-01
RMM:  73    -0.118837700999E+04   -0.31102E-05   -0.31387E-05   450   0.443E-04    0.115E-01
RMM:  74    -0.118837701307E+04   -0.30803E-05   -0.31028E-05   456   0.441E-04    0.122E-01
RMM:  75    -0.118837701610E+04   -0.30271E-05   -0.30498E-05   444   0.438E-04    0.129E-01
RMM:  76    -0.118837701895E+04   -0.28527E-05   -0.30022E-05   471   0.440E-04    0.133E-01
RMM:  77    -0.118837702187E+04   -0.29195E-05   -0.29497E-05   445   0.427E-04    0.139E-01
RMM:  78    -0.118837702477E+04   -0.29038E-05   -0.29292E-05   441   0.426E-04    0.146E-01
RMM:  79    -0.118837702762E+04   -0.28487E-05   -0.28734E-05   445   0.426E-04    0.153E-01
RMM:  80    -0.118837703045E+04   -0.28234E-05   -0.28482E-05   441   0.425E-04    0.161E-01
RMM:  81    -0.118837703323E+04   -0.27865E-05   -0.28062E-05   441   0.426E-04    0.168E-01
RMM:  82    -0.118837703597E+04   -0.27425E-05   -0.27682E-05   441   0.425E-04    0.175E-01
RMM:  83    -0.118837703868E+04   -0.27013E-05   -0.27254E-05   441   0.425E-04    0.182E-01
RMM:  84    -0.118837704134E+04   -0.26685E-05   -0.26914E-05   443   0.425E-04    0.189E-01
RMM:  85    -0.118837704397E+04   -0.26292E-05   -0.26516E-05   439   0.423E-04    0.196E-01
RMM:  86    -0.118837704655E+04   -0.25785E-05   -0.26220E-05   449   0.437E-04    0.203E-01
RMM:  87    -0.118837704907E+04   -0.25178E-05   -0.25725E-05   454   0.443E-04    0.210E-01
RMM:  88    -0.118837705155E+04   -0.24820E-05   -0.25105E-05   444   0.439E-04    0.217E-01
RMM:  89    -0.118837705401E+04   -0.24547E-05   -0.24801E-05   441   0.435E-04    0.224E-01
RMM:  90    -0.118837705644E+04   -0.24317E-05   -0.24551E-05   435   0.431E-04    0.232E-01
RMM:  91    -0.118837705883E+04   -0.23908E-05   -0.24185E-05   459   0.440E-04    0.239E-01
RMM:  92    -0.118837706120E+04   -0.23754E-05   -0.23961E-05   433   0.427E-04    0.246E-01
RMM:  93    -0.118837706354E+04   -0.23338E-05   -0.23582E-05   435   0.427E-04    0.254E-01
RMM:  94    -0.118837706585E+04   -0.23110E-05   -0.23332E-05   430   0.426E-04    0.261E-01
RMM:  95    -0.118837706813E+04   -0.22770E-05   -0.22992E-05   430   0.426E-04    0.268E-01
RMM:  96    -0.118837707040E+04   -0.22729E-05   -0.22720E-05   479   0.442E-04    0.276E-01
RMM:  97    -0.118837707261E+04   -0.22070E-05   -0.22422E-05   429   0.419E-04    0.283E-01
RMM:  98    -0.118837707481E+04   -0.22021E-05   -0.22115E-05   429   0.421E-04    0.291E-01
RMM:  99    -0.118837707697E+04   -0.21616E-05   -0.21857E-05   427   0.420E-04    0.298E-01
RMM: 100    -0.118837707910E+04   -0.21338E-05   -0.21543E-05   430   0.419E-04
   1 F= -.11958164E+04 E0= -.11958140E+04  d E =-.119582E+04  mag=    -0.9401
       N       E                     dE             d eps       ncg     rms          rms(c)
DAV:   1    -0.118837474346E+04    0.23335E-02   -0.34303E-01  1600   0.997E-01    0.124E+00
RMM:   2    -0.118837554609E+04   -0.80263E-03   -0.10396E-02  1721   0.160E-01    0.912E-01
RMM:   3    -0.118837547543E+04    0.70659E-04   -0.27312E-03  1662   0.720E-02    0.594E-01
RMM:   4    -0.118837566434E+04   -0.18891E-03   -0.71470E-04  1811   0.344E-02    0.131E+00
RMM:   5    -0.118837571652E+04   -0.52183E-04   -0.24696E-04  1875   0.190E-02    0.179E+00
RMM:   6    -0.118837545840E+04    0.25812E-03   -0.93554E-04  1542   0.378E-02    0.846E-01
RMM:   7    -0.118837546731E+04   -0.89129E-05   -0.15343E-04  1582   0.179E-02    0.556E-01
RMM:   8    -0.118837546373E+04    0.35828E-05   -0.20615E-05  1602   0.700E-03    0.426E-01
RMM:   9    -0.118837546378E+04   -0.49411E-07   -0.75027E-06  1542   0.368E-03
   2 F= -.11958162E+04 E0= -.11958138E+04  d E =0.214436E-03  mag=    -0.9418
       N       E                     dE             d eps       ncg     rms          rms(c)
DAV:   1    -0.118837703585E+04   -0.15721E-02   -0.93643E-02  1728   0.521E-01    0.226E-01
RMM:   2    -0.118837720861E+04   -0.17277E-03   -0.23521E-03  1703   0.805E-02    0.244E-01
RMM:   3    -0.118837731080E+04   -0.10219E-03   -0.52421E-04  1670   0.348E-02    0.265E-01
RMM:   4    -0.118837721895E+04    0.91857E-04   -0.13124E-04  1676   0.171E-02    0.167E-01
RMM:   5    -0.118837719872E+04    0.20231E-04   -0.45246E-05  1591   0.946E-03    0.102E-01
RMM:   6    -0.118837716258E+04    0.36132E-04   -0.12410E-04  1555   0.138E-02    0.257E-02
RMM:   7    -0.118837716409E+04   -0.15066E-05   -0.34449E-05  1581   0.775E-03    0.162E-02
RMM:   8    -0.118837716407E+04    0.20329E-07   -0.55931E-06  1354   0.326E-03
   3 F= -.11958171E+04 E0= -.11958148E+04  d E =-.750469E-03  mag=    -0.9416
       N       E                     dE             d eps       ncg     rms          rms(c)
DAV:   1    -0.118837696849E+04    0.19560E-03   -0.23169E-01  1824   0.809E-01    0.269E-01
RMM:   2    -0.118837726294E+04   -0.29445E-03   -0.40582E-03  1673   0.107E-01    0.231E-01
RMM:   3    -0.118837723283E+04    0.30113E-04   -0.90206E-04  1645   0.477E-02    0.163E-01
RMM:   4    -0.118837722274E+04    0.10085E-04   -0.22751E-04  1677   0.230E-02    0.100E-01
RMM:   5    -0.118837723984E+04   -0.17098E-04   -0.62433E-05  1570   0.111E-02    0.559E-02
RMM:   6    -0.118837722309E+04    0.16753E-04   -0.65358E-05  1536   0.108E-02    0.472E-02
RMM:   7    -0.118837722894E+04   -0.58477E-05   -0.32037E-05  1536   0.751E-03    0.246E-02
RMM:   8    -0.118837722705E+04    0.18822E-05   -0.56857E-06  1422   0.347E-03    0.109E-02
RMM:   9    -0.118837722823E+04   -0.11786E-05   -0.34323E-06  1204   0.237E-03    0.438E-03
RMM:  10    -0.118837722810E+04    0.12988E-06   -0.79334E-07  1011   0.126E-03
   4 F= -.11958177E+04 E0= -.11958153E+04  d E =-.536185E-03  mag=    -0.9420
