       N       E                     dE             d eps       ncg     rms          rms(c)
DAV:   1     0.504195041942E+04    0.50420E+04   -0.17469E+05  1836   0.929E+02
DAV:   2    -0.256080425709E+02   -0.50676E+04   -0.46452E+04  2592   0.212E+02
DAV:   3    -0.119377185791E+04   -0.11682E+04   -0.11624E+04  2088   0.112E+02
DAV:   4    -0.124081128489E+04   -0.47039E+02   -0.46767E+02  2052   0.297E+01
DAV:   5    -0.124197290313E+04   -0.11616E+01   -0.11582E+01  2304   0.429E+00    0.661E+01
RMM:   6    -0.122726619862E+04    0.14707E+02   -0.26099E+01  1584   0.518E+00    0.540E+01
RMM:   7    -0.121259532647E+04    0.14671E+02   -0.72748E+00  1584   0.317E+00    0.431E+01
RMM:   8    -0.118638680456E+04    0.26209E+02   -0.33080E+01  1584   0.668E+00    0.274E+01
RMM:   9    -0.117680987769E+04    0.95769E+01   -0.15520E+01  1584   0.458E+00    0.204E+01
RMM:  10    -0.117704509135E+04   -0.23521E+00   -0.21570E+01  1584   0.528E+00    0.880E+00
RMM:  11    -0.117667112562E+04    0.37397E+00   -0.10700E+00  1621   0.128E+00    0.612E+00
RMM:  12    -0.117628967599E+04    0.38145E+00   -0.15900E+00  1584   0.133E+00    0.469E+00
RMM:  13    -0.117594113946E+04    0.34854E+00   -0.77831E-01  1584   0.966E-01    0.937E-01
RMM:  14    -0.117594306472E+04   -0.19253E-02   -0.70782E-02  1585   0.266E-01    0.103E+00
RMM:  15    -0.117592694951E+04    0.16115E-01   -0.40895E-02  1587   0.216E-01    0.355E-01
RMM:  16    -0.117592715064E+04   -0.20114E-03   -0.33855E-03  1613   0.670E-02    0.283E-01
RMM:  17    -0.117592620143E+04    0.94922E-03   -0.24373E-03  1537   0.522E-02    0.133E-01
RMM:  18    -0.117592640062E+04   -0.19919E-03   -0.97951E-04  1295   0.356E-02    0.873E-02
RMM:  19    -0.117592637415E+04    0.26465E-04   -0.15039E-04  1045   0.153E-02
   1 F= -.11831374E+04 E0= -.11831374E+04  d E =-.118314E+04  mag=     0.0019
       N       E                     dE             d eps       ncg     rms          rms(c)
DAV:   1    -0.117592072381E+04    0.56768E-02   -0.20400E+00  1692   0.213E+00    0.531E-01
RMM:   2    -0.117592454368E+04   -0.38199E-02   -0.47202E-02  1584   0.299E-01    0.532E-01
RMM:   3    -0.117592450264E+04    0.41043E-04   -0.29036E-03  1691   0.619E-02    0.508E-01
RMM:   4    -0.117592366383E+04    0.83880E-03   -0.11230E-03  1568   0.408E-02    0.368E-01
RMM:   5    -0.117592356522E+04    0.98617E-04   -0.42717E-03  1584   0.739E-02    0.899E-02
RMM:   6    -0.117592348440E+04    0.80817E-04   -0.13533E-04  1060   0.165E-02
   2 F= -.11831353E+04 E0= -.11831353E+04  d E =0.205362E-02  mag=     0.0002
       N       E                     dE             d eps       ncg     rms          rms(c)
DAV:   1    -0.117592821854E+04   -0.46533E-02   -0.63141E-01  1836   0.118E+00    0.289E-01
RMM:   2    -0.117592908704E+04   -0.86850E-03   -0.12097E-02  1585   0.155E-01    0.293E-01
RMM:   3    -0.117592903785E+04    0.49192E-04   -0.65915E-04  1273   0.303E-02
   3 F= -.11831404E+04 E0= -.11831404E+04  d E =-.303422E-02  mag=     0.0000
       N       E                     dE             d eps       ncg     rms          rms(c)
DAV:   1    -0.117592554598E+04    0.35411E-02   -0.66555E-01  1656   0.131E+00    0.344E-01
RMM:   2    -0.117592647362E+04   -0.92764E-03   -0.17205E-02  1584   0.203E-01    0.332E-01
RMM:   3    -0.117592594525E+04    0.52837E-03   -0.77589E-04  1398   0.385E-02    0.301E-01
RMM:   4    -0.117592449972E+04    0.14455E-02   -0.76781E-03  1584   0.999E-02    0.103E-01
RMM:   5    -0.117592445153E+04    0.48195E-04   -0.24190E-04  1096   0.223E-02
   4 F= -.11831356E+04 E0= -.11831356E+04  d E =0.482079E-02  mag=     0.0000
       N       E                     dE             d eps       ncg     rms          rms(c)
DAV:   1    -0.117592924215E+04   -0.47424E-02   -0.38297E-01  1728   0.996E-01    0.174E-01
RMM:   2    -0.117592983597E+04   -0.59381E-03   -0.93318E-03  1584   0.148E-01    0.155E-01
RMM:   3    -0.117592964127E+04    0.19469E-03   -0.40015E-04  1228   0.280E-02    0.141E-01
RMM:   4    -0.117592909427E+04    0.54700E-03   -0.19386E-03  1582   0.502E-02    0.542E-02
RMM:   5    -0.117592907827E+04    0.15999E-04   -0.11764E-04  1022   0.151E-02
   5 F= -.11831404E+04 E0= -.11831404E+04  d E =0.179603E-04  mag=     0.0000
