       N       E                     dE             d eps       ncg     rms          rms(c)
DAV:   1     0.477614620386E+04    0.47761E+04   -0.17910E+05  1908   0.925E+02
DAV:   2    -0.869343718508E+02   -0.48631E+04   -0.44569E+04  2520   0.208E+02
DAV:   3    -0.119646023548E+04   -0.11095E+04   -0.11038E+04  2088   0.108E+02
DAV:   4    -0.124113621041E+04   -0.44676E+02   -0.44404E+02  2016   0.285E+01
DAV:   5    -0.124228359001E+04   -0.11474E+01   -0.11442E+01  2304   0.420E+00    0.684E+01
RMM:   6    -0.123011922372E+04    0.12164E+02   -0.41484E+01  1595   0.622E+00    0.593E+01
RMM:   7    -0.121411738676E+04    0.16002E+02   -0.62516E+00  1584   0.283E+00    0.459E+01
RMM:   8    -0.119125240376E+04    0.22865E+02   -0.25738E+01  1584   0.586E+00    0.318E+01
RMM:   9    -0.117627838016E+04    0.14974E+02   -0.20549E+01  1584   0.521E+00    0.221E+01
RMM:  10    -0.117379900583E+04    0.24794E+01   -0.16428E+01  1584   0.465E+00    0.126E+01
RMM:  11    -0.117467846225E+04   -0.87946E+00   -0.39897E+00  1589   0.237E+00    0.733E+00
RMM:  12    -0.117440340995E+04    0.27505E+00   -0.18976E-01  1619   0.572E-01    0.577E+00
RMM:  13    -0.117389383990E+04    0.50957E+00   -0.18459E+00  1584   0.153E+00    0.180E+00
RMM:  14    -0.117385157882E+04    0.42261E-01   -0.73956E-02  1610   0.313E-01    0.111E+00
RMM:  15    -0.117384485964E+04    0.67192E-02   -0.41226E-02  1585   0.224E-01    0.414E-01
RMM:  16    -0.117384500313E+04   -0.14349E-03   -0.58340E-03  1610   0.955E-02    0.279E-01
RMM:  17    -0.117384447962E+04    0.52351E-03   -0.35959E-03  1583   0.665E-02    0.143E-01
RMM:  18    -0.117384459185E+04   -0.11223E-03   -0.62261E-04  1295   0.291E-02    0.834E-02
RMM:  19    -0.117384461748E+04   -0.25623E-04   -0.13196E-04  1053   0.152E-02
   1 F= -.11810129E+04 E0= -.11810129E+04  d E =-.118101E+04  mag=    -0.9990
       N       E                     dE             d eps       ncg     rms          rms(c)
DAV:   1    -0.117383622309E+04    0.83688E-02   -0.26198E+00  1692   0.261E+00    0.593E-01
RMM:   2    -0.117384540634E+04   -0.91833E-02   -0.99145E-02  1592   0.410E-01    0.632E-01
RMM:   3    -0.117384388685E+04    0.15195E-02   -0.47082E-03  1844   0.804E-02    0.636E-01
RMM:   4    -0.117384381058E+04    0.76268E-04   -0.37819E-04  1140   0.225E-02
   2 F= -.11810134E+04 E0= -.11810134E+04  d E =-.487778E-03  mag=    -0.9994
       N       E                     dE             d eps       ncg     rms          rms(c)
DAV:   1    -0.117384559805E+04   -0.17112E-02   -0.57892E-01  1620   0.122E+00    0.386E-01
RMM:   2    -0.117384773608E+04   -0.21380E-02   -0.21364E-02  1585   0.192E-01    0.263E-01
RMM:   3    -0.117384733804E+04    0.39804E-03   -0.11910E-03  1490   0.416E-02    0.190E-01
RMM:   4    -0.117384736991E+04   -0.31869E-04   -0.85329E-04  1540   0.345E-02
   3 F= -.11810163E+04 E0= -.11810163E+04  d E =-.344323E-02  mag=    -1.0002
       N       E                     dE             d eps       ncg     rms          rms(c)
DAV:   1    -0.117384574863E+04    0.15894E-02   -0.15485E+00  1656   0.181E+00    0.427E-01
RMM:   2    -0.117384829281E+04   -0.25442E-02   -0.32781E-02  1588   0.239E-01    0.410E-01
RMM:   3    -0.117384782507E+04    0.46774E-03   -0.12897E-03  1498   0.458E-02    0.382E-01
RMM:   4    -0.117384732895E+04    0.49612E-03   -0.32876E-03  1584   0.630E-02    0.150E-01
RMM:   5    -0.117384748197E+04   -0.15302E-03   -0.72868E-04  1500   0.308E-02    0.889E-02
RMM:   6    -0.117384740008E+04    0.81888E-04   -0.15470E-04  1054   0.153E-02
   4 F= -.11810169E+04 E0= -.11810169E+04  d E =-.581345E-03  mag=    -1.0000
       N       E                     dE             d eps       ncg     rms          rms(c)
DAV:   1    -0.117384855159E+04   -0.10696E-02   -0.34776E-01  1728   0.856E-01    0.200E-01
RMM:   2    -0.117384899187E+04   -0.44029E-03   -0.68948E-03  1589   0.109E-01    0.195E-01
RMM:   3    -0.117384885044E+04    0.14144E-03   -0.24884E-04  1125   0.213E-02    0.182E-01
RMM:   4    -0.117384863438E+04    0.21606E-03   -0.10418E-03  1561   0.360E-02    0.690E-02
RMM:   5    -0.117384867022E+04   -0.35841E-04   -0.17404E-04  1049   0.161E-02
   5 F= -.11810179E+04 E0= -.11810179E+04  d E =-.159169E-02  mag=    -1.0000
       N       E                     dE             d eps       ncg     rms          rms(c)
DAV:   1    -0.117384786515E+04    0.76923E-03   -0.66382E-01  1728   0.134E+00    0.201E-01
RMM:   2    -0.117385038377E+04   -0.25186E-02   -0.28887E-02  1591   0.217E-01    0.185E-01
RMM:   3    -0.117384962988E+04    0.75389E-03   -0.94561E-04  1337   0.402E-02    0.172E-01
RMM:   4    -0.117384925498E+04    0.37490E-03   -0.11187E-03  1544   0.377E-02    0.894E-02
RMM:   5    -0.117384923856E+04    0.16414E-04   -0.33920E-04  1186   0.219E-02
   6 F= -.11810188E+04 E0= -.11810188E+04  d E =-.863804E-03  mag=    -1.0000
       N       E                     dE             d eps       ncg     rms          rms(c)
DAV:   1    -0.117384959558E+04   -0.34060E-03   -0.78084E-02  1728   0.459E-01    0.633E-02
RMM:   2    -0.117384988158E+04   -0.28601E-03   -0.32939E-03  1547   0.718E-02    0.555E-02
RMM:   3    -0.117384978549E+04    0.96089E-04   -0.10295E-04  1018   0.139E-02
   7 F= -.11810192E+04 E0= -.11810192E+04  d E =-.130898E-02  mag=    -1.0000
       N       E                     dE             d eps       ncg     rms          rms(c)
DAV:   1    -0.117384820819E+04    0.16734E-02   -0.53123E-01  1656   0.121E+00    0.161E-01
RMM:   2    -0.117385105518E+04   -0.28470E-02   -0.30305E-02  1599   0.197E-01    0.121E-01
RMM:   3    -0.117385023497E+04    0.82022E-03   -0.99862E-04  1259   0.376E-02    0.105E-01
RMM:   4    -0.117385016607E+04    0.68894E-04   -0.62917E-04  1414   0.288E-02
   8 F= -.11810200E+04 E0= -.11810200E+04  d E =-.829224E-03  mag=    -1.0000
       N       E                     dE             d eps       ncg     rms          rms(c)
DAV:   1    -0.117385019063E+04    0.44341E-04   -0.63845E-04  1728   0.416E-02    0.350E-02
RMM:   2    -0.117385019711E+04   -0.64859E-05   -0.34772E-05   968   0.872E-03
   9 F= -.11810201E+04 E0= -.11810201E+04  d E =-.846196E-03  mag=    -1.0000
