       N       E                     dE             d eps       ncg     rms          rms(c)
DAV:   1     0.495086694037E+04    0.49509E+04   -0.17464E+05  1872   0.926E+02
DAV:   2    -0.527434105841E+02   -0.50036E+04   -0.45868E+04  2592   0.209E+02
DAV:   3    -0.118959309935E+04   -0.11368E+04   -0.11317E+04  2088   0.110E+02
DAV:   4    -0.123591524036E+04   -0.46322E+02   -0.46069E+02  2016   0.291E+01
DAV:   5    -0.123707144255E+04   -0.11562E+01   -0.11534E+01  2376   0.413E+00    0.636E+01
RMM:   6    -0.122161678306E+04    0.15455E+02   -0.16754E+01  1584   0.427E+00    0.503E+01
RMM:   7    -0.120101221272E+04    0.20605E+02   -0.15984E+01  1584   0.466E+00    0.374E+01
RMM:   8    -0.117521006398E+04    0.25802E+02   -0.40237E+01  1584   0.730E+00    0.236E+01
RMM:   9    -0.117300815925E+04    0.22019E+01   -0.39617E+01  1584   0.718E+00    0.123E+01
RMM:  10    -0.117282560386E+04    0.18256E+00   -0.11045E+00  1669   0.142E+00    0.123E+01
RMM:  11    -0.117480909397E+04   -0.19835E+01   -0.14823E+00  1584   0.126E+00    0.156E+01
RMM:  12    -0.117569250921E+04   -0.88342E+00   -0.58648E+00  1584   0.218E+00    0.204E+01
RMM:  13    -0.117523938562E+04    0.45312E+00   -0.13361E-01  1661   0.405E-01    0.202E+01
RMM:  14    -0.117399501875E+04    0.12444E+01   -0.29271E-02  1593   0.132E-01    0.149E+01
RMM:  15    -0.117455932135E+04   -0.56430E+00   -0.12722E-02  1585   0.111E-01    0.185E+01
RMM:  16    -0.117376314913E+04    0.79617E+00   -0.22502E-02  1576   0.921E-02    0.151E+01
RMM:  17    -0.117169417219E+04    0.20690E+01   -0.71644E-01  1586   0.419E-01    0.492E+00
RMM:  18    -0.117167250916E+04    0.21663E-01   -0.60352E-01  1598   0.363E-01    0.636E+00
RMM:  19    -0.117135886442E+04    0.31364E+00   -0.14526E-01  1586   0.414E-01    0.433E+00
RMM:  20    -0.117151825082E+04   -0.15939E+00   -0.24997E-01  1584   0.529E-01    0.608E+00
RMM:  21    -0.117149770294E+04    0.20548E-01   -0.96010E-03  1629   0.127E-01    0.606E+00
RMM:  22    -0.117148006545E+04    0.17637E-01   -0.19251E-03  1551   0.491E-02    0.609E+00
RMM:  23    -0.117092171851E+04    0.55835E+00   -0.72007E-01  1612   0.550E-01    0.760E+00
RMM:  24    -0.117121075765E+04   -0.28904E+00   -0.37039E-02  1584   0.194E-01    0.661E+00
RMM:  25    -0.117118215308E+04    0.28605E-01   -0.66392E-03  1585   0.881E-02    0.646E+00
RMM:  26    -0.117109166695E+04    0.90486E-01   -0.73240E-03  1584   0.633E-02    0.582E+00
RMM:  27    -0.117117352848E+04   -0.81862E-01   -0.57372E-03  1584   0.709E-02    0.657E+00
RMM:  28    -0.117113445649E+04    0.39072E-01   -0.57365E-03  1585   0.750E-02    0.687E+00
RMM:  29    -0.117088142277E+04    0.25303E+00   -0.17148E-02  1605   0.111E-01    0.653E+00
RMM:  30    -0.117089895013E+04   -0.17527E-01   -0.22786E-03  1541   0.500E-02    0.641E+00
RMM:  31    -0.117093123974E+04   -0.32290E-01   -0.15335E-02  1586   0.104E-01    0.556E+00
RMM:  32    -0.117096515485E+04   -0.33915E-01   -0.10512E-02  1586   0.980E-02    0.619E+00
RMM:  33    -0.117091943163E+04    0.45723E-01   -0.20840E-03  1279   0.589E-02    0.588E+00
RMM:  34    -0.117091896353E+04    0.46810E-03   -0.63550E-04  1196   0.269E-02    0.553E+00
RMM:  35    -0.117093997122E+04   -0.21008E-01   -0.62397E-03  1585   0.688E-02    0.486E+00
RMM:  36    -0.117098027014E+04   -0.40299E-01   -0.54220E-03  1349   0.570E-02    0.471E+00
RMM:  37    -0.117101546686E+04   -0.35197E-01   -0.58745E-03  1456   0.536E-02    0.438E+00
RMM:  38    -0.117104713778E+04   -0.31671E-01   -0.31139E-03  1243   0.422E-02    0.429E+00
RMM:  39    -0.117104085316E+04    0.62846E-02   -0.17541E-03  1186   0.343E-02    0.415E+00
RMM:  40    -0.117104684055E+04   -0.59874E-02   -0.16824E-03  1288   0.383E-02    0.397E+00
RMM:  41    -0.117104905429E+04   -0.22137E-02   -0.11904E-03  1094   0.262E-02    0.396E+00
RMM:  42    -0.117104508407E+04    0.39702E-02   -0.10616E-03  1101   0.262E-02    0.385E+00
RMM:  43    -0.117104014847E+04    0.49356E-02   -0.67512E-04  1063   0.187E-02    0.375E+00
RMM:  44    -0.117103788514E+04    0.22633E-02   -0.50491E-04  1042   0.149E-02    0.378E+00
RMM:  45    -0.117101808265E+04    0.19802E-01   -0.11432E-03  1087   0.216E-02    0.366E+00
RMM:  46    -0.117099961731E+04    0.18465E-01   -0.13143E-03  1099   0.198E-02    0.349E+00
RMM:  47    -0.117100354901E+04   -0.39317E-02   -0.10180E-04   998   0.114E-02    0.346E+00
RMM:  48    -0.117099600447E+04    0.75445E-02   -0.21380E-04  1039   0.102E-02    0.341E+00
RMM:  49    -0.117099561813E+04    0.38634E-03   -0.32674E-05   766   0.603E-03    0.341E+00
RMM:  50    -0.117100035839E+04   -0.47403E-02   -0.52267E-05   819   0.651E-03    0.344E+00
RMM:  51    -0.117100649279E+04   -0.61344E-02   -0.12392E-04   942   0.812E-03    0.344E+00
RMM:  52    -0.117100905080E+04   -0.25580E-02   -0.40909E-05   633   0.466E-03    0.345E+00
RMM:  53    -0.117100878762E+04    0.26318E-03   -0.26097E-06   468   0.282E-03    0.345E+00
RMM:  54    -0.117100377635E+04    0.50113E-02   -0.57574E-05   695   0.551E-03    0.341E+00
RMM:  55    -0.117099077733E+04    0.12999E-01   -0.10423E-03  1094   0.219E-02    0.330E+00
RMM:  56    -0.117092716842E+04    0.63609E-01   -0.12381E-02  1551   0.676E-02    0.325E+00
RMM:  57    -0.117092936369E+04   -0.21953E-02   -0.88812E-04  1157   0.310E-02    0.324E+00
RMM:  58    -0.117092609675E+04    0.32669E-02   -0.10341E-04  1010   0.103E-02    0.326E+00
RMM:  59    -0.117092475630E+04    0.13405E-02   -0.36298E-05   806   0.578E-03    0.318E+00
RMM:  60    -0.117091606464E+04    0.86917E-02   -0.23590E-03  1164   0.319E-02    0.301E+00
RMM:  61    -0.117128742919E+04   -0.37136E+00   -0.42222E-01  1601   0.387E-01    0.785E+00
RMM:  62    -0.117135458544E+04   -0.67156E-01   -0.27714E-02  1582   0.133E-01    0.730E+00
RMM:  63    -0.117129267636E+04    0.61909E-01   -0.34098E-03  1239   0.423E-02    0.742E+00
RMM:  64    -0.117125907627E+04    0.33600E-01   -0.10699E-03  1129   0.258E-02    0.752E+00
RMM:  65    -0.117128506319E+04   -0.25987E-01   -0.45731E-03  1208   0.428E-02    0.725E+00
RMM:  66    -0.117142260485E+04   -0.13754E+00   -0.39909E-02  1584   0.143E-01    0.691E+00
RMM:  67    -0.117141671641E+04    0.58884E-02   -0.25607E-03  1212   0.328E-02    0.689E+00
RMM:  68    -0.117140996593E+04    0.67505E-02   -0.15237E-03  1126   0.257E-02    0.705E+00
RMM:  69    -0.117143830155E+04   -0.28336E-01   -0.20162E-02  1362   0.870E-02    0.623E+00
RMM:  70    -0.117140143609E+04    0.36865E-01   -0.43961E-02  1560   0.116E-01    0.618E+00
RMM:  71    -0.117137518683E+04    0.26249E-01   -0.27861E-02  1587   0.114E-01    0.617E+00
RMM:  72    -0.117135831859E+04    0.16868E-01   -0.26336E-03  1173   0.301E-02    0.618E+00
RMM:  73    -0.117135797158E+04    0.34701E-03   -0.19665E-04  1055   0.129E-02    0.617E+00
RMM:  74    -0.117137102106E+04   -0.13049E-01   -0.30903E-03  1191   0.351E-02    0.612E+00
RMM:  75    -0.117138666229E+04   -0.15641E-01   -0.94684E-03  1293   0.578E-02    0.597E+00
RMM:  76    -0.117130696314E+04    0.79699E-01   -0.12839E-01  1583   0.208E-01    0.600E+00
RMM:  77    -0.117136666155E+04   -0.59698E-01   -0.42971E-03  1216   0.511E-02    0.586E+00
RMM:  78    -0.117143682048E+04   -0.70159E-01   -0.92241E-03  1227   0.586E-02    0.587E+00
RMM:  79    -0.117148803719E+04   -0.51217E-01   -0.87364E-03  1153   0.507E-02    0.583E+00
RMM:  80    -0.117151793352E+04   -0.29896E-01   -0.14090E-02  1229   0.637E-02    0.619E+00
RMM:  81    -0.117151268983E+04    0.52437E-02   -0.84487E-02  1401   0.152E-01    0.773E+00
RMM:  82    -0.117148494935E+04    0.27740E-01   -0.21025E-02  1250   0.707E-02    0.836E+00
RMM:  83    -0.117147949857E+04    0.54508E-02   -0.22907E-03  1114   0.214E-02    0.843E+00
RMM:  84    -0.117148919294E+04   -0.96944E-02   -0.48087E-04  1032   0.139E-02    0.834E+00
RMM:  85    -0.117150470286E+04   -0.15510E-01   -0.59263E-03  1155   0.418E-02    0.787E+00
RMM:  86    -0.117153125092E+04   -0.26548E-01   -0.21906E-02  1244   0.791E-02    0.714E+00
RMM:  87    -0.117154564198E+04   -0.14391E-01   -0.89381E-03  1188   0.492E-02    0.669E+00
RMM:  88    -0.117157697837E+04   -0.31336E-01   -0.42509E-02  1456   0.110E-01    0.550E+00
RMM:  89    -0.117160197015E+04   -0.24992E-01   -0.50224E-02  1500   0.118E-01    0.425E+00
RMM:  90    -0.117163188569E+04   -0.29916E-01   -0.40469E-02  1315   0.106E-01    0.319E+00
RMM:  91    -0.117161939681E+04    0.12489E-01   -0.16340E-01  1494   0.191E-01    0.232E+00
RMM:  92    -0.117162325976E+04   -0.38629E-02   -0.12854E-02  1233   0.633E-02    0.166E+00
RMM:  93    -0.117161915391E+04    0.41058E-02   -0.89703E-04  1078   0.177E-02    0.213E+00
RMM:  94    -0.117161842726E+04    0.72665E-03   -0.11562E-03  1072   0.235E-02    0.185E+00
RMM:  95    -0.117162399138E+04   -0.55641E-02   -0.47076E-03  1238   0.447E-02    0.311E+00
RMM:  96    -0.117163684631E+04   -0.12855E-01   -0.35477E-02  1356   0.111E-01    0.221E+00
RMM:  97    -0.117166599744E+04   -0.29151E-01   -0.79122E-03  1258   0.617E-02    0.161E+00
RMM:  98    -0.117166410172E+04    0.18957E-02   -0.27776E-03  1199   0.307E-02    0.129E+00
RMM:  99    -0.117167335177E+04   -0.92500E-02   -0.26765E-03  1091   0.324E-02    0.137E+00
RMM: 100    -0.117168004581E+04   -0.66940E-02   -0.51202E-03  1129   0.412E-02
   1 F= -.11788727E+04 E0= -.11788727E+04  d E =-.117887E+04  mag=     0.9456
       N       E                     dE             d eps       ncg     rms          rms(c)
DAV:   1    -0.117169128884E+04   -0.17937E-01   -0.22198E+00  1584   0.206E+00    0.836E-01
RMM:   2    -0.117168902728E+04    0.22616E-02   -0.49392E-02  1584   0.280E-01    0.649E-01
RMM:   3    -0.117168378271E+04    0.52446E-02   -0.10847E-02  1587   0.903E-02    0.437E-01
RMM:   4    -0.117168337184E+04    0.41087E-03   -0.82063E-04  1336   0.322E-02    0.371E-01
RMM:   5    -0.117168154040E+04    0.18314E-02   -0.66784E-03  1584   0.873E-02    0.158E-01
RMM:   6    -0.117168182984E+04   -0.28944E-03   -0.11735E-03  1584   0.397E-02    0.927E-02
RMM:   7    -0.117168193572E+04   -0.10588E-03   -0.15595E-04  1047   0.146E-02    0.109E-01
RMM:   8    -0.117168218063E+04   -0.24491E-03   -0.54313E-04  1071   0.152E-02    0.248E-01
RMM:   9    -0.117168168676E+04    0.49387E-03   -0.18662E-04  1035   0.150E-02    0.271E-02
RMM:  10    -0.117168189376E+04   -0.20700E-03   -0.39032E-05  1010   0.880E-03    0.536E-02
RMM:  11    -0.117168189612E+04   -0.23644E-05   -0.16955E-05   932   0.507E-03
   2 F= -.11788753E+04 E0= -.11788729E+04  d E =-.262376E-02  mag=     0.9738
       N       E                     dE             d eps       ncg     rms          rms(c)
DAV:   1    -0.117168666246E+04   -0.47687E-02   -0.33441E-01  1692   0.808E-01    0.258E-01
RMM:   2    -0.117168665627E+04    0.61941E-05   -0.62632E-03  1584   0.106E-01    0.216E-01
RMM:   3    -0.117168635320E+04    0.30307E-03   -0.37337E-04  1127   0.232E-02    0.184E-01
RMM:   4    -0.117168586476E+04    0.48844E-03   -0.14007E-03  1584   0.427E-02    0.925E-02
RMM:   5    -0.117168588093E+04   -0.16172E-04   -0.25433E-04  1159   0.196E-02
   3 F= -.11788790E+04 E0= -.11788769E+04  d E =-.630515E-02  mag=     0.9749
       N       E                     dE             d eps       ncg     rms          rms(c)
DAV:   1    -0.117167832161E+04    0.75431E-02   -0.12581E+00  1728   0.172E+00    0.327E-01
RMM:   2    -0.117168070157E+04   -0.23800E-02   -0.34371E-02  1598   0.263E-01    0.286E-01
RMM:   3    -0.117168023046E+04    0.47111E-03   -0.13311E-03  1531   0.470E-02    0.249E-01
RMM:   4    -0.117167957652E+04    0.65394E-03   -0.26418E-03  1580   0.581E-02    0.144E-01
RMM:   5    -0.117167959098E+04   -0.14462E-04   -0.43272E-04  1231   0.250E-02
   4 F= -.11788728E+04 E0= -.11788711E+04  d E =0.626720E-02  mag=     0.9794
       N       E                     dE             d eps       ncg     rms          rms(c)
DAV:   1    -0.117168696392E+04   -0.73874E-02   -0.62115E-01  1728   0.120E+00    0.232E-01
RMM:   2    -0.117168808975E+04   -0.11258E-02   -0.17344E-02  1596   0.187E-01    0.200E-01
RMM:   3    -0.117168779498E+04    0.29477E-03   -0.67236E-04  1300   0.340E-02    0.177E-01
RMM:   4    -0.117168725468E+04    0.54031E-03   -0.26247E-03  1578   0.566E-02    0.861E-02
RMM:   5    -0.117168726628E+04   -0.11604E-04   -0.90162E-05  1028   0.132E-02
   5 F= -.11788804E+04 E0= -.11788785E+04  d E =-.139245E-02  mag=     0.9789
