       N       E                     dE             d eps       ncg     rms          rms(c)
DAV:   1     0.500466051993E+04    0.50047E+04   -0.16917E+05  1656   0.990E+02
DAV:   2     0.341344919617E+02   -0.49705E+04   -0.45694E+04  2268   0.223E+02
DAV:   3    -0.116530281464E+04   -0.11994E+04   -0.11932E+04  1872   0.121E+02
DAV:   4    -0.121928505761E+04   -0.53982E+02   -0.53618E+02  1872   0.341E+01
DAV:   5    -0.122059276390E+04   -0.13077E+01   -0.13044E+01  2016   0.507E+00    0.600E+01
RMM:   6    -0.120813489467E+04    0.12458E+02   -0.79751E+00  1440   0.387E+00    0.485E+01
RMM:   7    -0.117083471572E+04    0.37300E+02   -0.53483E+01  1440   0.933E+00    0.292E+01
RMM:   8    -0.115744645870E+04    0.13388E+02   -0.35624E+01  1440   0.747E+00    0.169E+01
RMM:   9    -0.115834403059E+04   -0.89757E+00   -0.17033E+01  1440   0.535E+00    0.908E+00
RMM:  10    -0.115731351686E+04    0.10305E+01   -0.19687E+00  1440   0.181E+00    0.188E+00
RMM:  11    -0.115728634155E+04    0.27175E-01   -0.25187E-01  1440   0.656E-01    0.961E-01
RMM:  12    -0.115730190717E+04   -0.15566E-01   -0.58416E-02  1454   0.279E-01    0.369E-01
RMM:  13    -0.115730247642E+04   -0.56925E-03   -0.20134E-02  1440   0.181E-01    0.310E-01
RMM:  14    -0.115730000716E+04    0.24693E-02   -0.49932E-03  1442   0.837E-02    0.157E-01
RMM:  15    -0.115729986045E+04    0.14671E-03   -0.15428E-03  1351   0.506E-02    0.733E-02
RMM:  16    -0.115729987678E+04   -0.16330E-04   -0.13066E-03  1440   0.454E-02    0.567E-02
RMM:  17    -0.115729989058E+04   -0.13797E-04   -0.13277E-04   920   0.166E-02
   1 F= -.11642778E+04 E0= -.11642778E+04  d E =-.116428E+04  mag=    -0.0078
       N       E                     dE             d eps       ncg     rms          rms(c)
DAV:   1    -0.115730013293E+04   -0.25615E-03   -0.33584E-01  1476   0.102E+00    0.138E-01
RMM:   2    -0.115730060776E+04   -0.47483E-03   -0.74812E-03  1441   0.137E-01    0.136E-01
RMM:   3    -0.115730049648E+04    0.11128E-03   -0.44429E-04  1118   0.314E-02    0.128E-01
RMM:   4    -0.115730007827E+04    0.41821E-03   -0.28628E-03  1440   0.641E-02    0.423E-02
RMM:   5    -0.115730004347E+04    0.34797E-04   -0.45034E-05   893   0.125E-02
   2 F= -.11642779E+04 E0= -.11642779E+04  d E =-.194098E-03  mag=    -0.0029
       N       E                     dE             d eps       ncg     rms          rms(c)
DAV:   1    -0.115730074357E+04   -0.66530E-03   -0.79348E-02  1548   0.497E-01    0.530E-02
RMM:   2    -0.115730083170E+04   -0.88131E-04   -0.13498E-03  1442   0.602E-02    0.518E-02
RMM:   3    -0.115730080427E+04    0.27429E-04   -0.62799E-05   889   0.132E-02
   3 F= -.11642787E+04 E0= -.11642787E+04  d E =-.933588E-03  mag=     0.0017
