       N       E                     dE             d eps       ncg     rms          rms(c)
DAV:   1     0.463844657215E+04    0.46384E+04   -0.17755E+05  1944   0.916E+02
DAV:   2    -0.986369551587E+02   -0.47371E+04   -0.43209E+04  2520   0.203E+02
DAV:   3    -0.119893430001E+04   -0.11003E+04   -0.10963E+04  2088   0.107E+02
DAV:   4    -0.124308244314E+04   -0.44148E+02   -0.43899E+02  2016   0.282E+01
DAV:   5    -0.124421300639E+04   -0.11306E+01   -0.11277E+01  2376   0.414E+00    0.670E+01
RMM:   6    -0.122972578609E+04    0.14487E+02   -0.88586E+00  1586   0.327E+00    0.547E+01
RMM:   7    -0.118925634611E+04    0.40469E+02   -0.85617E+01  1589   0.100E+01    0.304E+01
RMM:   8    -0.118215036659E+04    0.71060E+01   -0.13499E+01  1594   0.410E+00    0.233E+01
RMM:   9    -0.117992796441E+04    0.22224E+01   -0.27824E+01  1584   0.598E+00    0.129E+01
RMM:  10    -0.117921108532E+04    0.71688E+00   -0.36540E+00  1594   0.212E+00    0.779E+00
RMM:  11    -0.117848458739E+04    0.72650E+00   -0.91828E-01  1591   0.953E-01    0.558E+00
RMM:  12    -0.117790064191E+04    0.58395E+00   -0.20113E+00  1584   0.155E+00    0.165E+00
RMM:  13    -0.117787381323E+04    0.26829E-01   -0.95733E-02  1590   0.376E-01    0.856E-01
RMM:  14    -0.117786635974E+04    0.74535E-02   -0.57807E-02  1590   0.238E-01    0.420E-01
RMM:  15    -0.117786640693E+04   -0.47187E-04   -0.55225E-03  1650   0.904E-02    0.299E-01
RMM:  16    -0.117786585182E+04    0.55510E-03   -0.53289E-03  1589   0.784E-02    0.172E-01
RMM:  17    -0.117786610123E+04   -0.24940E-03   -0.11980E-03  1588   0.422E-02    0.120E-01
RMM:  18    -0.117786625599E+04   -0.15476E-03   -0.43786E-04  1231   0.224E-02    0.127E-01
RMM:  19    -0.117786612493E+04    0.13106E-03   -0.70353E-04  1330   0.269E-02    0.369E-02
RMM:  20    -0.117786613116E+04   -0.62316E-05   -0.41353E-05  1024   0.811E-03
   1 F= -.11851618E+04 E0= -.11851608E+04  d E =-.118516E+04  mag=    -0.9800
       N       E                     dE             d eps       ncg     rms          rms(c)
DAV:   1    -0.117786163711E+04    0.44878E-02   -0.70730E-01  1620   0.134E+00    0.303E-01
RMM:   2    -0.117786458831E+04   -0.29512E-02   -0.33879E-02  1651   0.236E-01    0.268E-01
RMM:   3    -0.117786412714E+04    0.46117E-03   -0.18787E-03  1669   0.500E-02    0.229E-01
RMM:   4    -0.117786362443E+04    0.50271E-03   -0.30019E-03  1584   0.621E-02    0.910E-02
RMM:   5    -0.117786362083E+04    0.35982E-05   -0.20550E-04  1104   0.188E-02
   2 F= -.11851598E+04 E0= -.11851585E+04  d E =0.203773E-02  mag=    -0.9727
       N       E                     dE             d eps       ncg     rms          rms(c)
DAV:   1    -0.117786621896E+04   -0.25945E-02   -0.30488E-01  1620   0.879E-01    0.190E-01
RMM:   2    -0.117786731407E+04   -0.10951E-02   -0.13057E-02  1638   0.146E-01    0.166E-01
RMM:   3    -0.117786705598E+04    0.25809E-03   -0.72189E-04  1294   0.316E-02    0.137E-01
RMM:   4    -0.117786680026E+04    0.25572E-03   -0.15197E-03  1577   0.440E-02    0.582E-02
RMM:   5    -0.117786679488E+04    0.53782E-05   -0.64035E-05  1030   0.115E-02
   3 F= -.11851626E+04 E0= -.11851616E+04  d E =-.823676E-03  mag=    -0.9773
