       N       E                     dE             d eps       ncg     rms          rms(c)
DAV:   1     0.448882024506E+04    0.44888E+04   -0.18171E+05  1980   0.923E+02
DAV:   2    -0.147445383333E+03   -0.46363E+04   -0.42390E+04  2520   0.206E+02
DAV:   3    -0.120241007071E+04   -0.10550E+04   -0.10489E+04  2052   0.105E+02
DAV:   4    -0.124483648950E+04   -0.42426E+02   -0.42171E+02  2016   0.279E+01
DAV:   5    -0.124591643548E+04   -0.10799E+01   -0.10769E+01  2412   0.407E+00    0.691E+01
RMM:   6    -0.122931824197E+04    0.16598E+02   -0.30828E+01  1584   0.539E+00    0.580E+01
RMM:   7    -0.121473372653E+04    0.14585E+02   -0.71573E+00  1584   0.305E+00    0.447E+01
RMM:   8    -0.118856398256E+04    0.26170E+02   -0.32426E+01  1584   0.655E+00    0.290E+01
RMM:   9    -0.117696288847E+04    0.11601E+02   -0.18907E+01  1584   0.501E+00    0.207E+01
RMM:  10    -0.117703565062E+04   -0.72762E-01   -0.18650E+01  1584   0.488E+00    0.101E+01
RMM:  11    -0.117701664502E+04    0.19006E-01   -0.16039E+00  1603   0.156E+00    0.703E+00
RMM:  12    -0.117656921877E+04    0.44743E+00   -0.38979E-01  1584   0.660E-01    0.506E+00
RMM:  13    -0.117612744434E+04    0.44177E+00   -0.14845E+00  1584   0.137E+00    0.154E+00
RMM:  14    -0.117608272221E+04    0.44722E-01   -0.10678E-01  1592   0.368E-01    0.803E-01
RMM:  15    -0.117608123846E+04    0.14838E-02   -0.14352E-02  1606   0.138E-01    0.525E-01
RMM:  16    -0.117608087060E+04    0.36786E-03   -0.62366E-03  1602   0.920E-02    0.321E-01
RMM:  17    -0.117608080729E+04    0.63312E-04   -0.18677E-03  1532   0.501E-02    0.191E-01
RMM:  18    -0.117608099921E+04   -0.19192E-03   -0.42883E-04  1242   0.241E-02    0.125E-01
RMM:  19    -0.117608100626E+04   -0.70531E-05   -0.35974E-04  1240   0.224E-02
   1 F= -.11832563E+04 E0= -.11832563E+04  d E =-.118326E+04  mag=     0.0006
       N       E                     dE             d eps       ncg     rms          rms(c)
DAV:   1    -0.117607710298E+04    0.38962E-02   -0.14614E+00  1656   0.190E+00    0.477E-01
RMM:   2    -0.117608067487E+04   -0.35719E-02   -0.40694E-02  1584   0.277E-01    0.510E-01
RMM:   3    -0.117608073331E+04   -0.58437E-04   -0.23848E-03  1646   0.555E-02    0.527E-01
RMM:   4    -0.117608049561E+04    0.23769E-03   -0.27787E-04  1128   0.212E-02    0.477E-01
RMM:   5    -0.117608024455E+04    0.25106E-03   -0.29624E-03  1584   0.593E-02    0.254E-01
RMM:   6    -0.117608005993E+04    0.18463E-03   -0.13767E-04  1073   0.158E-02    0.210E-01
RMM:   7    -0.117607995278E+04    0.10714E-03   -0.28642E-04  1157   0.176E-02    0.182E-01
RMM:   8    -0.117607993340E+04    0.19383E-04   -0.40396E-05   997   0.886E-03
   2 F= -.11832561E+04 E0= -.11832561E+04  d E =0.215782E-03  mag=    -0.0000
       N       E                     dE             d eps       ncg     rms          rms(c)
DAV:   1    -0.117608180144E+04   -0.18487E-02   -0.37930E-01  1656   0.961E-01    0.262E-01
RMM:   2    -0.117608261026E+04   -0.80882E-03   -0.96830E-03  1584   0.139E-01    0.249E-01
RMM:   3    -0.117608258030E+04    0.29967E-04   -0.47681E-04  1227   0.261E-02
   3 F= -.11832583E+04 E0= -.11832583E+04  d E =-.199613E-02  mag=     0.0000
       N       E                     dE             d eps       ncg     rms          rms(c)
DAV:   1    -0.117608051057E+04    0.20997E-02   -0.10073E+00  1692   0.154E+00    0.307E-01
RMM:   2    -0.117608235891E+04   -0.18483E-02   -0.21485E-02  1584   0.201E-01    0.328E-01
RMM:   3    -0.117608230976E+04    0.49150E-04   -0.92382E-04  1370   0.380E-02
   4 F= -.11832584E+04 E0= -.11832584E+04  d E =-.101672E-03  mag=     0.0000
       N       E                     dE             d eps       ncg     rms          rms(c)
DAV:   1    -0.117608276184E+04   -0.40293E-03   -0.22423E-01  1728   0.722E-01    0.184E-01
RMM:   2    -0.117608325718E+04   -0.49534E-03   -0.48852E-03  1584   0.957E-02    0.117E-01
RMM:   3    -0.117608324202E+04    0.15158E-04   -0.27854E-04  1120   0.216E-02
   5 F= -.11832591E+04 E0= -.11832591E+04  d E =-.858633E-03  mag=    -0.0000
