       N       E                     dE             d eps       ncg     rms          rms(c)
DAV:   1     0.464629445195E+04    0.46463E+04   -0.17811E+05  1888   0.939E+02
DAV:   2    -0.827001207481E+02   -0.47290E+04   -0.42974E+04  2432   0.213E+02
DAV:   3    -0.118261346558E+04   -0.10999E+04   -0.10944E+04  2048   0.111E+02
DAV:   4    -0.122783047009E+04   -0.45217E+02   -0.44975E+02  1984   0.300E+01
DAV:   5    -0.122893718605E+04   -0.11067E+01   -0.11042E+01  2304   0.440E+00    0.693E+01
RMM:   6    -0.120747832108E+04    0.21459E+02   -0.39024E+01  1567   0.835E+00    0.718E+01
RMM:   7    -0.120080378646E+04    0.66745E+01   -0.93082E+00  1567   0.383E+00    0.591E+01
RMM:   8    -0.118090335532E+04    0.19900E+02   -0.27592E+01  1578   0.681E+00    0.413E+01
RMM:   9    -0.116243890288E+04    0.18464E+02   -0.29577E+01  1610   0.741E+00    0.271E+01
RMM:  10    -0.116077911529E+04    0.16598E+01   -0.49805E+00  1565   0.346E+00    0.209E+01
RMM:  11    -0.115911024994E+04    0.16689E+01   -0.10088E+01  1561   0.408E+00    0.123E+01
RMM:  12    -0.115899977631E+04    0.11047E+00   -0.26435E+00  1569   0.261E+00    0.720E+00
RMM:  13    -0.115924654614E+04   -0.24677E+00   -0.75192E-01  1720   0.126E+00    0.583E+00
RMM:  14    -0.115900983955E+04    0.23671E+00   -0.60818E-01  1545   0.111E+00    0.352E+00
RMM:  15    -0.115898308662E+04    0.26753E-01   -0.78921E-02  1564   0.446E-01    0.238E+00
RMM:  16    -0.115896745846E+04    0.15628E-01   -0.31420E-01  1585   0.745E-01    0.145E+00
RMM:  17    -0.115896734375E+04    0.11471E-03   -0.35142E-02  1560   0.344E-01    0.953E-01
RMM:  18    -0.115897329038E+04   -0.59466E-02   -0.12264E-02  1609   0.177E-01    0.567E-01
RMM:  19    -0.115897813532E+04   -0.48449E-02   -0.99765E-03  1605   0.151E-01    0.333E-01
RMM:  20    -0.115898005642E+04   -0.19211E-02   -0.28213E-03  1559   0.898E-02    0.165E-01
RMM:  21    -0.115898072775E+04   -0.67133E-03   -0.29410E-03  1548   0.750E-02    0.167E-01
RMM:  22    -0.115898055506E+04    0.17269E-03   -0.69213E-04  1547   0.379E-02    0.784E-02
RMM:  23    -0.115898057324E+04   -0.18179E-04   -0.18379E-04  1651   0.179E-02    0.594E-02
RMM:  24    -0.115898059040E+04   -0.17157E-04   -0.74356E-05  1579   0.127E-02    0.449E-02
RMM:  25    -0.115898059239E+04   -0.19896E-05   -0.46845E-05  1558   0.847E-03    0.357E-02
RMM:  26    -0.115898059717E+04   -0.47851E-05   -0.23231E-05  1559   0.627E-03    0.186E-02
RMM:  27    -0.115898059827E+04   -0.10936E-05   -0.60252E-06  1202   0.330E-03    0.136E-02
RMM:  28    -0.115898059877E+04   -0.50676E-06   -0.57096E-06  1180   0.322E-03
   1 F= -.11589806E+04 E0= -.11589806E+04  d E =-.115898E+04  mag=     0.0001
       N       E                     dE             d eps       ncg     rms          rms(c)
DAV:   1    -0.115894233662E+04    0.38262E-01   -0.63669E+00  1760   0.395E+00    0.599E-01
RMM:   2    -0.115895740024E+04   -0.15064E-01   -0.17581E-01  1564   0.721E-01    0.731E-01
RMM:   3    -0.115896183516E+04   -0.44349E-02   -0.42758E-02  1804   0.289E-01    0.678E-01
RMM:   4    -0.115896168061E+04    0.15455E-03   -0.70046E-03  1892   0.112E-01    0.690E-01
RMM:   5    -0.115895945804E+04    0.22226E-02   -0.15197E-03  1591   0.525E-02    0.642E-01
RMM:   6    -0.115895889182E+04    0.56623E-03   -0.49292E-02  1576   0.250E-01    0.600E-01
RMM:   7    -0.115895828399E+04    0.60783E-03   -0.52859E-03  1673   0.121E-01    0.575E-01
RMM:   8    -0.115895635038E+04    0.19336E-02   -0.22515E-03  1583   0.607E-02    0.442E-01
RMM:   9    -0.115895752121E+04   -0.11708E-02   -0.87282E-04  1554   0.416E-02    0.451E-01
RMM:  10    -0.115895661364E+04    0.90757E-03   -0.50416E-04  1600   0.296E-02    0.368E-01
RMM:  11    -0.115895616584E+04    0.44781E-03   -0.56371E-04  1604   0.266E-02    0.314E-01
RMM:  12    -0.115895625814E+04   -0.92309E-04   -0.53226E-05  1546   0.127E-02    0.305E-01
RMM:  13    -0.115895594656E+04    0.31158E-03   -0.27107E-04  1645   0.190E-02    0.238E-01
RMM:  14    -0.115895592871E+04    0.17856E-04   -0.42568E-05  1751   0.912E-03    0.227E-01
RMM:  15    -0.115895595473E+04   -0.26020E-04   -0.47515E-06  1310   0.359E-03    0.227E-01
RMM:  16    -0.115895587166E+04    0.83068E-04   -0.48601E-05  1704   0.828E-03    0.171E-01
RMM:  17    -0.115895582924E+04    0.42416E-04   -0.25244E-05  1595   0.588E-03    0.148E-01
RMM:  18    -0.115895581037E+04    0.18869E-04   -0.13037E-05  1553   0.454E-03    0.130E-01
RMM:  19    -0.115895577293E+04    0.37446E-04   -0.28589E-05  1728   0.637E-03    0.925E-02
RMM:  20    -0.115895576043E+04    0.12494E-04   -0.89380E-06  1517   0.390E-03    0.790E-02
RMM:  21    -0.115895573995E+04    0.20486E-04   -0.24551E-05  1717   0.559E-03    0.542E-02
RMM:  22    -0.115895573453E+04    0.54144E-05   -0.60689E-06  1390   0.337E-03    0.446E-02
RMM:  23    -0.115895572869E+04    0.58390E-05   -0.98849E-06  1499   0.390E-03    0.266E-02
RMM:  24    -0.115895572594E+04    0.27593E-05   -0.10744E-05  1511   0.406E-03    0.828E-03
RMM:  25    -0.115895572594E+04   -0.17535E-08   -0.13676E-06  1022   0.226E-03
   2 F= -.11589557E+04 E0= -.11589557E+04  d E =0.248728E-01  mag=     0.0000
       N       E                     dE             d eps       ncg     rms          rms(c)
DAV:   1    -0.115898203038E+04   -0.26304E-01   -0.31315E+00  1792   0.277E+00    0.415E-01
RMM:   2    -0.115898758305E+04   -0.55527E-02   -0.70922E-02  1561   0.499E-01    0.497E-01
RMM:   3    -0.115898902607E+04   -0.14430E-02   -0.14728E-02  1719   0.193E-01    0.460E-01
RMM:   4    -0.115898879780E+04    0.22827E-03   -0.31117E-03  1868   0.798E-02    0.466E-01
RMM:   5    -0.115898758099E+04    0.12168E-02   -0.89808E-04  1573   0.419E-02    0.410E-01
RMM:   6    -0.115898732141E+04    0.25958E-03   -0.19530E-02  1933   0.154E-01    0.329E-01
RMM:   7    -0.115898680989E+04    0.51152E-03   -0.63765E-04  1571   0.431E-02    0.301E-01
RMM:   8    -0.115898642574E+04    0.38415E-03   -0.61319E-04  1569   0.295E-02    0.240E-01
RMM:   9    -0.115898661578E+04   -0.19004E-03   -0.16425E-04  1596   0.206E-02    0.215E-01
RMM:  10    -0.115898642481E+04    0.19097E-03   -0.20117E-04  1588   0.183E-02    0.162E-01
RMM:  11    -0.115898634754E+04    0.77269E-04   -0.17371E-04  1605   0.153E-02    0.132E-01
RMM:  12    -0.115898635115E+04   -0.36114E-05   -0.15903E-05  1586   0.676E-03    0.129E-01
RMM:  13    -0.115898632222E+04    0.28923E-04   -0.36359E-05  1571   0.709E-03    0.102E-01
RMM:  14    -0.115898632642E+04   -0.41978E-05   -0.45748E-06  1281   0.348E-03    0.899E-02
RMM:  15    -0.115898631715E+04    0.92737E-05   -0.11011E-05  1505   0.424E-03    0.649E-02
RMM:  16    -0.115898631309E+04    0.40559E-05   -0.50232E-06  1296   0.310E-03    0.493E-02
RMM:  17    -0.115898631143E+04    0.16613E-05   -0.18204E-06  1062   0.202E-03    0.459E-02
RMM:  18    -0.115898630885E+04    0.25819E-05   -0.48684E-06  1305   0.269E-03    0.366E-02
RMM:  19    -0.115898630719E+04    0.16595E-05   -0.18345E-06  1067   0.223E-03    0.275E-02
RMM:  20    -0.115898630631E+04    0.88472E-06   -0.15552E-06  1053   0.179E-03
   3 F= -.11589863E+04 E0= -.11589863E+04  d E =-.570753E-02  mag=     0.0000
       N       E                     dE             d eps       ncg     rms          rms(c)
DAV:   1    -0.115898656981E+04   -0.26262E-03   -0.84276E-01  1632   0.159E+00    0.219E-01
RMM:   2    -0.115898790782E+04   -0.13380E-02   -0.16465E-02  1542   0.242E-01    0.240E-01
RMM:   3    -0.115898824021E+04   -0.33239E-03   -0.38114E-03  1664   0.944E-02    0.212E-01
RMM:   4    -0.115898816669E+04    0.73513E-04   -0.80712E-04  1770   0.414E-02    0.201E-01
RMM:   5    -0.115898795790E+04    0.20880E-03   -0.30690E-04  1560   0.244E-02    0.159E-01
RMM:   6    -0.115898799334E+04   -0.35444E-04   -0.18578E-03  1810   0.505E-02    0.102E-01
RMM:   7    -0.115898784917E+04    0.14417E-03   -0.17727E-04  1552   0.191E-02    0.785E-02
RMM:   8    -0.115898782871E+04    0.20460E-04   -0.10771E-04  1600   0.124E-02    0.575E-02
RMM:   9    -0.115898783723E+04   -0.85208E-05   -0.16616E-05  1563   0.667E-03    0.478E-02
RMM:  10    -0.115898782150E+04    0.15733E-04   -0.66426E-05  1613   0.925E-03    0.264E-02
RMM:  11    -0.115898782090E+04    0.59885E-06   -0.55558E-06  1403   0.421E-03
   4 F= -.11589878E+04 E0= -.11589878E+04  d E =-.151459E-02  mag=     0.0000
       N       E                     dE             d eps       ncg     rms          rms(c)
DAV:   1    -0.115898821340E+04   -0.39190E-03   -0.96019E-02  1664   0.537E-01    0.707E-02
RMM:   2    -0.115898836649E+04   -0.15309E-03   -0.18762E-03  1542   0.819E-02    0.750E-02
RMM:   3    -0.115898840399E+04   -0.37498E-04   -0.45024E-04  1656   0.318E-02    0.667E-02
RMM:   4    -0.115898839699E+04    0.69953E-05   -0.73739E-05  1791   0.133E-02    0.649E-02
RMM:   5    -0.115898836526E+04    0.31729E-04   -0.48939E-05  1543   0.946E-03    0.466E-02
RMM:   6    -0.115898837193E+04   -0.66636E-05   -0.20424E-04  1758   0.167E-02    0.336E-02
RMM:   7    -0.115898835566E+04    0.16272E-04   -0.22900E-05  1534   0.682E-03    0.246E-02
RMM:   8    -0.115898835627E+04   -0.61580E-06   -0.87537E-06  1516   0.398E-03
   5 F= -.11589884E+04 E0= -.11589884E+04  d E =-.204997E-02  mag=    -0.0000
       N       E                     dE             d eps       ncg     rms          rms(c)
DAV:   1    -0.115898874074E+04   -0.38508E-03   -0.57039E-01  1664   0.140E+00    0.174E-01
RMM:   2    -0.115898961395E+04   -0.87322E-03   -0.11312E-02  1544   0.197E-01    0.169E-01
RMM:   3    -0.115898973304E+04   -0.11908E-03   -0.23630E-03  1674   0.787E-02    0.155E-01
RMM:   4    -0.115898959411E+04    0.13893E-03   -0.43008E-04  1689   0.330E-02    0.136E-01
RMM:   5    -0.115898935324E+04    0.24087E-03   -0.77850E-04  1560   0.343E-02    0.684E-02
RMM:   6    -0.115898937771E+04   -0.24470E-04   -0.49814E-04  1556   0.285E-02    0.438E-02
RMM:   7    -0.115898933278E+04    0.44930E-04   -0.59469E-05  1560   0.130E-02    0.323E-02
RMM:   8    -0.115898932572E+04    0.70544E-05   -0.76986E-05  1556   0.973E-03    0.177E-02
RMM:   9    -0.115898932501E+04    0.70960E-06   -0.96050E-06  1515   0.555E-03
   6 F= -.11589893E+04 E0= -.11589893E+04  d E =-.968742E-03  mag=     0.0000
       N       E                     dE             d eps       ncg     rms          rms(c)
DAV:   1    -0.115898953873E+04   -0.21301E-03   -0.59467E-02  1664   0.453E-01    0.565E-02
RMM:   2    -0.115898962755E+04   -0.88821E-04   -0.11345E-03  1544   0.622E-02    0.541E-02
RMM:   3    -0.115898963972E+04   -0.12170E-04   -0.23982E-04  1676   0.248E-02    0.492E-02
RMM:   4    -0.115898962548E+04    0.14246E-04   -0.43555E-05  1680   0.105E-02    0.425E-02
RMM:   5    -0.115898960246E+04    0.23011E-04   -0.70767E-05  1556   0.106E-02    0.207E-02
RMM:   6    -0.115898960523E+04   -0.27663E-05   -0.45079E-05  1542   0.873E-03    0.124E-02
RMM:   7    -0.115898960112E+04    0.41112E-05   -0.59409E-06  1481   0.403E-03    0.860E-03
RMM:   8    -0.115898960103E+04    0.94689E-07   -0.53603E-06  1333   0.272E-03
   7 F= -.11589896E+04 E0= -.11589896E+04  d E =-.124475E-02  mag=    -0.0000
       N       E                     dE             d eps       ncg     rms          rms(c)
DAV:   1    -0.115899008521E+04   -0.48409E-03   -0.36385E-01  1664   0.111E+00    0.120E-01
RMM:   2    -0.115899059444E+04   -0.50922E-03   -0.65542E-03  1544   0.144E-01    0.113E-01
RMM:   3    -0.115899064107E+04   -0.46632E-04   -0.13060E-03  1646   0.587E-02    0.106E-01
RMM:   4    -0.115899055622E+04    0.84847E-04   -0.26251E-04  1653   0.259E-02    0.861E-02
RMM:   5    -0.115899050007E+04    0.56149E-04   -0.68217E-04  1564   0.322E-02    0.289E-02
RMM:   6    -0.115899048903E+04    0.11045E-04   -0.76497E-05  1623   0.149E-02    0.235E-02
RMM:   7    -0.115899048242E+04    0.66104E-05   -0.21961E-05  1593   0.693E-03    0.171E-02
RMM:   8    -0.115899048069E+04    0.17243E-05   -0.14204E-05  1516   0.470E-03    0.961E-03
RMM:   9    -0.115899048038E+04    0.30766E-06   -0.68247E-06  1482   0.345E-03
   8 F= -.11589905E+04 E0= -.11589905E+04  d E =-.879359E-03  mag=    -0.0000
       N       E                     dE             d eps       ncg     rms          rms(c)
DAV:   1    -0.115899049856E+04   -0.17867E-04   -0.93964E-03  1664   0.178E-01    0.190E-02
RMM:   2    -0.115899051177E+04   -0.13213E-04   -0.16606E-04  1550   0.230E-02    0.180E-02
RMM:   3    -0.115899051298E+04   -0.12043E-05   -0.33921E-05  1678   0.943E-03    0.168E-02
RMM:   4    -0.115899051041E+04    0.25631E-05   -0.65185E-06  1486   0.417E-03    0.130E-02
RMM:   5    -0.115899050909E+04    0.13193E-05   -0.14640E-05  1534   0.486E-03    0.422E-03
RMM:   6    -0.115899050894E+04    0.15440E-06   -0.19817E-06  1032   0.238E-03
   9 F= -.11589905E+04 E0= -.11589905E+04  d E =-.907914E-03  mag=    -0.0000
       N       E                     dE             d eps       ncg     rms          rms(c)
DAV:   1    -0.115899101546E+04   -0.50637E-03   -0.27384E-01  1664   0.953E-01    0.956E-02
RMM:   2    -0.115899138038E+04   -0.36492E-03   -0.46014E-03  1544   0.119E-01    0.891E-02
RMM:   3    -0.115899141432E+04   -0.33936E-04   -0.92266E-04  1618   0.490E-02    0.824E-02
RMM:   4    -0.115899135768E+04    0.56635E-04   -0.30757E-04  1604   0.263E-02    0.440E-02
RMM:   5    -0.115899137561E+04   -0.17926E-04   -0.19674E-04  1580   0.189E-02    0.195E-02
RMM:   6    -0.115899136665E+04    0.89550E-05   -0.27425E-05  1578   0.888E-03    0.152E-02
RMM:   7    -0.115899136522E+04    0.14288E-05   -0.18932E-05  1518   0.530E-03    0.818E-03
RMM:   8    -0.115899136468E+04    0.54544E-06   -0.41603E-06  1315   0.297E-03
  10 F= -.11589914E+04 E0= -.11589914E+04  d E =-.855740E-03  mag=    -0.0000
