       N       E                     dE             d eps       ncg     rms          rms(c)
DAV:   1     0.507673418350E+04    0.50767E+04   -0.17368E+05  1792   0.953E+02
DAV:   2     0.660152884819E+01   -0.50701E+04   -0.46518E+04  2464   0.220E+02
DAV:   3    -0.120064384496E+04   -0.12072E+04   -0.11979E+04  1920   0.117E+02
DAV:   4    -0.125521510011E+04   -0.54571E+02   -0.54186E+02  1920   0.340E+01
DAV:   5    -0.125678736626E+04   -0.15723E+01   -0.15670E+01  2368   0.555E+00    0.771E+01
RMM:   6    -0.125527277441E+04    0.15146E+01   -0.10326E+02  1769   0.164E+01    0.854E+01
RMM:   7    -0.123215210622E+04    0.23121E+02   -0.16116E+01  1542   0.722E+00    0.649E+01
RMM:   8    -0.122612223569E+04    0.60299E+01   -0.19805E+01  1573   0.532E+00    0.579E+01
RMM:   9    -0.118412020687E+04    0.42002E+02   -0.49363E+01  1728   0.936E+00    0.266E+01
RMM:  10    -0.118224831263E+04    0.18719E+01   -0.42989E+00  1669   0.346E+00    0.229E+01
RMM:  11    -0.118013410207E+04    0.21142E+01   -0.31258E+00  1546   0.252E+00    0.188E+01
RMM:  12    -0.117958522419E+04    0.54888E+00   -0.17144E+01  1831   0.511E+00    0.969E+00
RMM:  13    -0.117946157381E+04    0.12365E+00   -0.75612E-01  1617   0.160E+00    0.838E+00
RMM:  14    -0.117919835244E+04    0.26322E+00   -0.85351E-01  1569   0.131E+00    0.576E+00
RMM:  15    -0.117890857472E+04    0.28978E+00   -0.55953E-01  1555   0.998E-01    0.267E+00
RMM:  16    -0.117888896174E+04    0.19613E-01   -0.17977E-01  1709   0.601E-01    0.223E+00
RMM:  17    -0.117887844587E+04    0.10516E-01   -0.21990E-02  1619   0.259E-01    0.169E+00
RMM:  18    -0.117886695837E+04    0.11487E-01   -0.36805E-02  1579   0.252E-01    0.110E+00
RMM:  19    -0.117886091556E+04    0.60428E-02   -0.10766E-02  1696   0.156E-01    0.655E-01
RMM:  20    -0.117885769843E+04    0.32171E-02   -0.34420E-03  1549   0.794E-02    0.545E-01
RMM:  21    -0.117885582870E+04    0.18697E-02   -0.19526E-03  1628   0.570E-02    0.387E-01
RMM:  22    -0.117885489598E+04    0.93273E-03   -0.14759E-03  1590   0.458E-02    0.243E-01
RMM:  23    -0.117885464670E+04    0.24928E-03   -0.51103E-04  1801   0.292E-02    0.200E-01
RMM:  24    -0.117885438944E+04    0.25726E-03   -0.20566E-04  1654   0.183E-02    0.126E-01
RMM:  25    -0.117885425491E+04    0.13453E-03   -0.18908E-04  1662   0.177E-02    0.730E-02
RMM:  26    -0.117885422758E+04    0.27326E-04   -0.15658E-04  1662   0.147E-02    0.379E-02
RMM:  27    -0.117885424635E+04   -0.18773E-04   -0.36650E-05  1749   0.840E-03    0.374E-02
RMM:  28    -0.117885424226E+04    0.40977E-05   -0.15825E-05  1572   0.561E-03    0.207E-02
RMM:  29    -0.117885424077E+04    0.14884E-05   -0.83401E-06  1422   0.414E-03    0.853E-03
RMM:  30    -0.117885424015E+04    0.61469E-06   -0.28044E-06  1120   0.260E-03
   1 F= -.11860103E+04 E0= -.11860103E+04  d E =-.118601E+04  mag=    -0.9999
