       N       E                     dE             d eps       ncg     rms          rms(c)
DAV:   1     0.492727332730E+04    0.49273E+04   -0.16738E+05  1800   0.899E+02
DAV:   2    -0.475800871607E+02   -0.49749E+04   -0.45153E+04  2520   0.210E+02
DAV:   3    -0.119124840226E+04   -0.11437E+04   -0.11348E+04  2124   0.111E+02
DAV:   4    -0.123891375920E+04   -0.47665E+02   -0.47442E+02  2052   0.302E+01
DAV:   5    -0.124026205872E+04   -0.13483E+01   -0.13457E+01  2340   0.488E+00    0.744E+01
RMM:   6    -0.124062874480E+04   -0.36669E+00   -0.11121E+02  1714   0.123E+01    0.795E+01
RMM:   7    -0.121663368745E+04    0.23995E+02   -0.73473E+00  1584   0.402E+00    0.499E+01
RMM:   8    -0.120009438053E+04    0.16539E+02   -0.99000E+00  1588   0.377E+00    0.389E+01
RMM:   9    -0.118493418879E+04    0.15160E+02   -0.23385E+01  1602   0.573E+00    0.467E+01
RMM:  10    -0.116883058842E+04    0.16104E+02   -0.22355E+01  1584   0.630E+00    0.220E+01
RMM:  11    -0.116913586274E+04   -0.30527E+00   -0.11399E+01  1584   0.418E+00    0.133E+01
RMM:  12    -0.116891777775E+04    0.21808E+00   -0.46355E+00  1585   0.299E+00    0.923E+00
RMM:  13    -0.116754947175E+04    0.13683E+01   -0.13929E+00  1679   0.157E+00    0.516E+00
RMM:  14    -0.116726869972E+04    0.28077E+00   -0.11161E+00  1598   0.116E+00    0.248E+00
RMM:  15    -0.116728709977E+04   -0.18400E-01   -0.30115E-01  1621   0.899E-01    0.265E+00
RMM:  16    -0.116725605361E+04    0.31046E-01   -0.50314E-02  1615   0.287E-01    0.187E+00
RMM:  17    -0.116724778704E+04    0.82666E-02   -0.13265E-02  1687   0.196E-01    0.143E+00
RMM:  18    -0.116723864726E+04    0.91398E-02   -0.48078E-03  1681   0.819E-02    0.113E+00
RMM:  19    -0.116722582698E+04    0.12820E-01   -0.62483E-03  1625   0.817E-02    0.678E-01
RMM:  20    -0.116721975575E+04    0.60712E-02   -0.74639E-03  1621   0.739E-02    0.221E-01
RMM:  21    -0.116721918805E+04    0.56770E-03   -0.19865E-03  1371   0.430E-02    0.114E-01
RMM:  22    -0.116721892936E+04    0.25869E-03   -0.79943E-04  1317   0.281E-02    0.680E-02
RMM:  23    -0.116721891824E+04    0.11128E-04   -0.12555E-04  1060   0.201E-02
   1 F= -.11742598E+04 E0= -.11742598E+04  d E =-.117426E+04  mag=    -0.0015
       N       E                     dE             d eps       ncg     rms          rms(c)
DAV:   1    -0.116721936873E+04   -0.43936E-03   -0.32346E-01  1692   0.906E-01    0.179E-01
RMM:   2    -0.116721975359E+04   -0.38487E-03   -0.90284E-03  1642   0.137E-01    0.170E-01
RMM:   3    -0.116721941761E+04    0.33598E-03   -0.62179E-04  1444   0.489E-02    0.153E-01
RMM:   4    -0.116721859792E+04    0.81969E-03   -0.25378E-03  1584   0.567E-02    0.557E-02
RMM:   5    -0.116721860291E+04   -0.49911E-05   -0.22844E-04  1143   0.265E-02
   2 F= -.11742597E+04 E0= -.11742597E+04  d E =0.885329E-04  mag=    -0.0002
       N       E                     dE             d eps       ncg     rms          rms(c)
DAV:   1    -0.116721986565E+04   -0.12677E-02   -0.84004E-02  1764   0.459E-01    0.876E-02
RMM:   2    -0.116721988277E+04   -0.17125E-04   -0.17170E-03  1589   0.652E-02    0.817E-02
RMM:   3    -0.116721975199E+04    0.13078E-03   -0.12139E-04  1052   0.246E-02    0.717E-02
RMM:   4    -0.116721956571E+04    0.18628E-03   -0.32277E-04  1214   0.227E-02    0.368E-02
RMM:   5    -0.116721953203E+04    0.33681E-04   -0.21179E-04  1103   0.203E-02
   3 F= -.11742605E+04 E0= -.11742605E+04  d E =-.724183E-03  mag=     0.0000
