       N       E                     dE             d eps       ncg     rms          rms(c)
DAV:   1     0.492728062081E+04    0.49273E+04   -0.17662E+05  1872   0.919E+02
DAV:   2    -0.372864902284E+02   -0.49646E+04   -0.45453E+04  2520   0.211E+02
DAV:   3    -0.119074706163E+04   -0.11535E+04   -0.11465E+04  2088   0.112E+02
DAV:   4    -0.123927983394E+04   -0.48533E+02   -0.48250E+02  2052   0.299E+01
DAV:   5    -0.124054694987E+04   -0.12671E+01   -0.12636E+01  2412   0.458E+00    0.998E+01
RMM:   6    -0.124235681619E+04   -0.18099E+01   -0.20200E+02  1869   0.176E+01    0.948E+01
RMM:   7    -0.122258845679E+04    0.19768E+02   -0.94558E+00  1593   0.480E+00    0.685E+01
RMM:   8    -0.118939650162E+04    0.33192E+02   -0.31498E+01  1584   0.747E+00    0.386E+01
RMM:   9    -0.121096553889E+04   -0.21569E+02   -0.48832E+01  1590   0.804E+00    0.883E+01
RMM:  10    -0.116334380649E+04    0.47622E+02   -0.34732E+01  1623   0.695E+00    0.201E+01
RMM:  11    -0.116420237858E+04   -0.85857E+00   -0.82781E+00  1584   0.322E+00    0.130E+01
RMM:  12    -0.116346236115E+04    0.74002E+00   -0.49397E+00  1590   0.280E+00    0.106E+01
RMM:  13    -0.116283150787E+04    0.63085E+00   -0.34884E-01  1611   0.734E-01    0.819E+00
RMM:  14    -0.116268367765E+04    0.14783E+00   -0.26123E+00  1584   0.211E+00    0.594E+00
RMM:  15    -0.116237354088E+04    0.31014E+00   -0.32086E-01  1601   0.690E-01    0.257E+00
RMM:  16    -0.116236021809E+04    0.13323E-01   -0.51483E-02  1699   0.233E-01    0.235E+00
RMM:  17    -0.116233518198E+04    0.25036E-01   -0.32401E-02  1611   0.196E-01    0.197E+00
RMM:  18    -0.116233289402E+04    0.22880E-02   -0.18188E-03  1626   0.663E-02    0.182E+00
RMM:  19    -0.116234333057E+04   -0.10437E-01   -0.56396E-03  1619   0.804E-02    0.151E+00
RMM:  20    -0.116233499966E+04    0.83309E-02   -0.10531E-02  1633   0.106E-01    0.111E+00
RMM:  21    -0.116233423929E+04    0.76037E-03   -0.25192E-03  1401   0.516E-02    0.115E+00
RMM:  22    -0.116233234705E+04    0.18922E-02   -0.25487E-04  1089   0.257E-02    0.856E-01
RMM:  23    -0.116233259598E+04   -0.24893E-03   -0.37365E-05  1016   0.107E-02    0.852E-01
RMM:  24    -0.116233330218E+04   -0.70620E-03   -0.13408E-03  1190   0.388E-02    0.524E-01
RMM:  25    -0.116233412406E+04   -0.82188E-03   -0.12205E-04  1032   0.208E-02    0.493E-01
RMM:  26    -0.116233415320E+04   -0.29139E-04   -0.19973E-04  1062   0.180E-02
   1 F= -.11693455E+04 E0= -.11693417E+04  d E =-.116935E+04  mag=    -0.0128
       N       E                     dE             d eps       ncg     rms          rms(c)
DAV:   1    -0.116223656407E+04    0.97560E-01   -0.25618E+00  1872   0.601E+00    0.104E+00
RMM:   2    -0.116237944516E+04   -0.14288E+00   -0.14450E+00  1748   0.754E-01    0.679E-01
RMM:   3    -0.116233491088E+04    0.44534E-01   -0.40694E-02  1693   0.175E-01    0.382E-01
RMM:   4    -0.116233568822E+04   -0.77734E-03   -0.75832E-03  1293   0.480E-02    0.544E-01
RMM:   5    -0.116233513901E+04    0.54921E-03   -0.51850E-04  1208   0.294E-02    0.404E-01
RMM:   6    -0.116233587462E+04   -0.73561E-03   -0.26127E-03  1578   0.663E-02    0.713E-02
RMM:   7    -0.116233588111E+04   -0.64867E-05   -0.92410E-05  1050   0.181E-02
   2 F= -.11693480E+04 E0= -.11693459E+04  d E =-.242988E-02  mag=    -0.0053
       N       E                     dE             d eps       ncg     rms          rms(c)
DAV:   1    -0.116232520592E+04    0.10669E-01   -0.30855E-01  1944   0.208E+00    0.342E-01
RMM:   2    -0.116234176370E+04   -0.16558E-01   -0.16799E-01  1704   0.255E-01    0.170E-01
RMM:   3    -0.116233681786E+04    0.49458E-02   -0.46310E-03  1159   0.585E-02    0.120E-01
RMM:   4    -0.116233679736E+04    0.20502E-04   -0.76116E-04  1059   0.173E-02
   3 F= -.11693486E+04 E0= -.11693457E+04  d E =-.310226E-02  mag=    -0.0082
       N       E                     dE             d eps       ncg     rms          rms(c)
DAV:   1    -0.116228670004E+04    0.50118E-01   -0.12900E+00  1944   0.429E+00    0.723E-01
RMM:   2    -0.116236042059E+04   -0.73721E-01   -0.74439E-01  1738   0.522E-01    0.280E-01
RMM:   3    -0.116233797572E+04    0.22445E-01   -0.21144E-02  1382   0.121E-01    0.187E-01
RMM:   4    -0.116233805756E+04   -0.81848E-04   -0.34148E-03  1141   0.308E-02    0.170E-01
RMM:   5    -0.116233797129E+04    0.86274E-04   -0.11816E-04  1030   0.138E-02
   4 F= -.11693502E+04 E0= -.11693481E+04  d E =-.152138E-02  mag=    -0.0112
       N       E                     dE             d eps       ncg     rms          rms(c)
DAV:   1    -0.116233767499E+04    0.38257E-03   -0.15555E-02  1872   0.447E-01    0.976E-02
RMM:   2    -0.116233845089E+04   -0.77590E-03   -0.74683E-03  1314   0.639E-02    0.606E-02
RMM:   3    -0.116233826300E+04    0.18789E-03   -0.21950E-04  1012   0.160E-02    0.640E-02
RMM:   4    -0.116233825244E+04    0.10560E-04   -0.41918E-05   858   0.677E-03
   5 F= -.11693504E+04 E0= -.11693482E+04  d E =-.176659E-02  mag=    -0.0130
       N       E                     dE             d eps       ncg     rms          rms(c)
DAV:   1    -0.116233116616E+04    0.70968E-02   -0.27695E-01  1908   0.186E+00    0.286E-01
RMM:   2    -0.116234200003E+04   -0.10834E-01   -0.10982E-01  1722   0.233E-01    0.153E-01
RMM:   3    -0.116233912094E+04    0.28791E-02   -0.32522E-03  1176   0.543E-02    0.108E-01
RMM:   4    -0.116233911644E+04    0.45026E-05   -0.51063E-04  1063   0.167E-02
   6 F= -.11693512E+04 E0= -.11693493E+04  d E =-.790989E-03  mag=    -0.0129
       N       E                     dE             d eps       ncg     rms          rms(c)
DAV:   1    -0.116233577031E+04    0.33506E-02   -0.12260E-01  1944   0.123E+00    0.216E-01
RMM:   2    -0.116234042660E+04   -0.46563E-02   -0.48549E-02  1670   0.155E-01    0.160E-01
RMM:   3    -0.116233911824E+04    0.13084E-02   -0.14428E-03  1120   0.364E-02    0.140E-01
RMM:   4    -0.116233913812E+04   -0.19876E-04   -0.25673E-04  1028   0.143E-02
   7 F= -.11693512E+04 E0= -.11693495E+04  d E =-.766581E-03  mag=    -0.0114
