       N       E                     dE             d eps       ncg     rms          rms(c)
DAV:   1     0.472939409845E+04    0.47294E+04   -0.17294E+05  1944   0.906E+02
DAV:   2    -0.136473268184E+02   -0.47430E+04   -0.43024E+04  2628   0.207E+02
DAV:   3    -0.117405270598E+04   -0.11604E+04   -0.11515E+04  2160   0.111E+02
DAV:   4    -0.123777270737E+04   -0.63720E+02   -0.63364E+02  2304   0.341E+01
DAV:   5    -0.123967006217E+04   -0.18974E+01   -0.18931E+01  2340   0.544E+00    0.705E+01
RMM:   6    -0.122170554280E+04    0.17965E+02   -0.98350E+00  2104   0.515E+00    0.541E+01
RMM:   7    -0.119120670300E+04    0.30499E+02   -0.42928E+01  2096   0.971E+00    0.344E+01
RMM:   8    -0.117635039155E+04    0.14856E+02   -0.21894E+01  2069   0.744E+00    0.261E+01
RMM:   9    -0.117128694353E+04    0.50634E+01   -0.11158E+01  2079   0.624E+00    0.185E+01
RMM:  10    -0.117198644429E+04   -0.69950E+00   -0.11219E+01  2099   0.435E+00    0.996E+00
RMM:  11    -0.117256122808E+04   -0.57478E+00   -0.15087E+00  2132   0.195E+00    0.737E+00
RMM:  12    -0.117160589986E+04    0.95533E+00   -0.14895E+00  2052   0.182E+00    0.354E+00
RMM:  13    -0.117156679153E+04    0.39108E-01   -0.57683E-01  2056   0.200E+00    0.128E+00
RMM:  14    -0.117154390024E+04    0.22891E-01   -0.54135E-02  2091   0.476E-01    0.547E-01
RMM:  15    -0.117154363554E+04    0.26470E-03   -0.28690E-02  2093   0.214E-01    0.342E-01
RMM:  16    -0.117154277996E+04    0.85558E-03   -0.44249E-03  1893   0.142E-01    0.177E-01
RMM:  17    -0.117154283150E+04   -0.51537E-04   -0.15472E-03  1457   0.103E-01    0.164E-01
RMM:  18    -0.117154295490E+04   -0.12340E-03   -0.20776E-04  1166   0.130E-01    0.103E-01
RMM:  19    -0.117154299664E+04   -0.41734E-04   -0.29635E-04  1293   0.172E-01
   1 F= -.11788250E+04 E0= -.11788250E+04  d E =-.117883E+04  mag=     1.0065
       N       E                     dE             d eps       ncg     rms          rms(c)
DAV:   1    -0.117154265208E+04    0.30282E-03   -0.36779E-01  2124   0.123E+00    0.352E-01
RMM:   2    -0.117154384361E+04   -0.11915E-02   -0.15792E-02  2256   0.175E-01    0.269E-01
RMM:   3    -0.117154348495E+04    0.35866E-03   -0.21381E-03  1202   0.308E-01    0.300E-01
RMM:   4    -0.117154298592E+04    0.49903E-03   -0.66586E-04  1318   0.130E-01    0.217E-01
RMM:   5    -0.117154297652E+04    0.93960E-05   -0.19249E-03  1647   0.167E-01    0.173E-01
RMM:   6    -0.117154304498E+04   -0.68463E-04   -0.76288E-04  1319   0.152E-01
   2 F= -.11788252E+04 E0= -.11788252E+04  d E =-.197551E-03  mag=     0.9991
       N       E                     dE             d eps       ncg     rms          rms(c)
DAV:   1    -0.117154406442E+04   -0.10879E-02   -0.99954E-02  2196   0.636E-01    0.126E-01
RMM:   2    -0.117154421294E+04   -0.14852E-03   -0.35040E-03  2197   0.814E-02    0.125E-01
RMM:   3    -0.117154414159E+04    0.71349E-04   -0.53769E-04  1208   0.174E-01
   3 F= -.11788263E+04 E0= -.11788263E+04  d E =-.121802E-02  mag=     1.0000
       N       E                     dE             d eps       ncg     rms          rms(c)
DAV:   1    -0.117154465605E+04   -0.44312E-03   -0.21624E-01  2304   0.859E-01    0.240E-01
RMM:   2    -0.117154440016E+04    0.25590E-03   -0.52665E-03  2071   0.122E-01    0.280E-01
RMM:   3    -0.117154455893E+04   -0.15878E-03   -0.16067E-03  1236   0.316E-01    0.215E-01
RMM:   4    -0.117154358063E+04    0.97831E-03   -0.12884E-04  1118   0.828E-02    0.179E-01
RMM:   5    -0.117154270940E+04    0.87122E-03   -0.19792E-03  1723   0.138E-01    0.104E-01
RMM:   6    -0.117154263405E+04    0.75354E-04   -0.24606E-03  1933   0.123E-01    0.934E-02
RMM:   7    -0.117154266481E+04   -0.30755E-04   -0.59889E-04  1209   0.859E-02
   4 F= -.11788246E+04 E0= -.11788246E+04  d E =0.166013E-02  mag=     1.0000
       N       E                     dE             d eps       ncg     rms          rms(c)
DAV:   1    -0.117154486318E+04   -0.22291E-02   -0.12722E-01  2196   0.652E-01    0.141E-01
RMM:   2    -0.117154476404E+04    0.99139E-04   -0.28290E-03  2032   0.917E-02    0.178E-01
RMM:   3    -0.117154478069E+04   -0.16646E-04   -0.10607E-03  1247   0.277E-01    0.128E-01
RMM:   4    -0.117154436121E+04    0.41947E-03   -0.74427E-05  1069   0.676E-02    0.995E-02
RMM:   5    -0.117154401038E+04    0.35084E-03   -0.19733E-04  1053   0.108E-01    0.791E-02
RMM:   6    -0.117154402245E+04   -0.12070E-04   -0.23341E-03  1742   0.162E-01    0.602E-02
RMM:   7    -0.117154404707E+04   -0.24624E-04   -0.39782E-04  1215   0.108E-01
   5 F= -.11788261E+04 E0= -.11788261E+04  d E =0.142172E-03  mag=     1.0000
