       N       E                     dE             d eps       ncg     rms          rms(c)
DAV:   1     0.497937187875E+04    0.49794E+04   -0.16776E+05  1656   0.984E+02
DAV:   2     0.133159044279E+02   -0.49661E+04   -0.45726E+04  2304   0.225E+02
DAV:   3    -0.118342527529E+04   -0.11967E+04   -0.11835E+04  1872   0.121E+02
DAV:   4    -0.123796489291E+04   -0.54540E+02   -0.54164E+02  1872   0.346E+01
DAV:   5    -0.123942145599E+04   -0.14566E+01   -0.14524E+01  2052   0.560E+00    0.737E+01
RMM:   6    -0.123657096180E+04    0.28505E+01   -0.10522E+02  1545   0.138E+01    0.793E+01
RMM:   7    -0.121537865779E+04    0.21192E+02   -0.67234E+00  1444   0.431E+00    0.478E+01
RMM:   8    -0.119990975290E+04    0.15469E+02   -0.89026E+00  1448   0.403E+00    0.391E+01
RMM:   9    -0.118095203506E+04    0.18958E+02   -0.41972E+01  1453   0.823E+00    0.447E+01
RMM:  10    -0.116852121517E+04    0.12431E+02   -0.16265E+01  1441   0.630E+00    0.224E+01
RMM:  11    -0.116711423551E+04    0.14070E+01   -0.17017E+01  1440   0.554E+00    0.963E+00
RMM:  12    -0.116726455319E+04   -0.15032E+00   -0.23264E+00  1470   0.283E+00    0.771E+00
RMM:  13    -0.116712669483E+04    0.13786E+00   -0.14251E+00  1494   0.166E+00    0.812E+00
RMM:  14    -0.116640727426E+04    0.71942E+00   -0.48395E-01  1442   0.100E+00    0.363E+00
RMM:  15    -0.116630052520E+04    0.10675E+00   -0.47784E-01  1456   0.907E-01    0.219E+00
RMM:  16    -0.116629431778E+04    0.62074E-02   -0.26611E-02  1475   0.458E-01    0.190E+00
RMM:  17    -0.116628619246E+04    0.81253E-02   -0.72239E-03  1668   0.114E-01    0.166E+00
RMM:  18    -0.116627130696E+04    0.14886E-01   -0.67720E-03  1461   0.978E-02    0.106E+00
RMM:  19    -0.116626706493E+04    0.42420E-02   -0.28910E-03  1331   0.537E-02    0.825E-01
RMM:  20    -0.116626292107E+04    0.41439E-02   -0.17918E-03  1216   0.473E-02    0.504E-01
RMM:  21    -0.116626111214E+04    0.18089E-02   -0.22694E-03  1273   0.474E-02    0.177E-01
RMM:  22    -0.116626102843E+04    0.83708E-04   -0.53475E-04   984   0.302E-02
   1 F= -.11732980E+04 E0= -.11732980E+04  d E =-.117330E+04  mag=     0.0004
       N       E                     dE             d eps       ncg     rms          rms(c)
DAV:   1    -0.116625982635E+04    0.12858E-02   -0.36200E-01  1512   0.105E+00    0.173E-01
RMM:   2    -0.116626046110E+04   -0.63475E-03   -0.99449E-03  1462   0.169E-01    0.163E-01
RMM:   3    -0.116626033548E+04    0.12561E-03   -0.75692E-04  1288   0.565E-02    0.148E-01
RMM:   4    -0.116626000743E+04    0.32805E-03   -0.31578E-04  1046   0.270E-02    0.116E-01
RMM:   5    -0.116625974899E+04    0.25844E-03   -0.14296E-03  1440   0.482E-02    0.470E-02
RMM:   6    -0.116625974683E+04    0.21601E-05   -0.10554E-04   886   0.293E-02
   2 F= -.11732971E+04 E0= -.11732971E+04  d E =0.867525E-03  mag=     0.0000
       N       E                     dE             d eps       ncg     rms          rms(c)
DAV:   1    -0.116626173705E+04   -0.19881E-02   -0.13433E-01  1440   0.638E-01    0.103E-01
RMM:   2    -0.116626187105E+04   -0.13400E-03   -0.30681E-03  1440   0.100E-01    0.106E-01
RMM:   3    -0.116626181657E+04    0.54478E-04   -0.19032E-04   969   0.317E-02
   3 F= -.11732989E+04 E0= -.11732989E+04  d E =-.950323E-03  mag=     0.0000
