       N       E                     dE             d eps       ncg     rms          rms(c)
DAV:   1     0.484613931740E+04    0.48461E+04   -0.18475E+05  1888   0.971E+02
DAV:   2    -0.400733645947E+02   -0.48862E+04   -0.44920E+04  2464   0.220E+02
DAV:   3    -0.120107940537E+04   -0.11610E+04   -0.11543E+04  1920   0.115E+02
DAV:   4    -0.125219578042E+04   -0.51116E+02   -0.50689E+02  1952   0.327E+01
DAV:   5    -0.125358264029E+04   -0.13869E+01   -0.13797E+01  2240   0.509E+00    0.841E+01
RMM:   6    -0.124129350143E+04    0.12289E+02   -0.11225E+02  1670   0.152E+01    0.952E+01
RMM:   7    -0.122844149576E+04    0.12852E+02   -0.19469E+01  1543   0.658E+00    0.712E+01
RMM:   8    -0.120737277344E+04    0.21069E+02   -0.21905E+01  1565   0.614E+00    0.415E+01
RMM:   9    -0.118863878068E+04    0.18734E+02   -0.20757E+01  1573   0.613E+00    0.278E+01
RMM:  10    -0.118095854715E+04    0.76802E+01   -0.10116E+01  1543   0.473E+00    0.221E+01
RMM:  11    -0.117654633320E+04    0.44122E+01   -0.20542E+01  1665   0.590E+00    0.140E+01
RMM:  12    -0.117757832983E+04   -0.10320E+01   -0.41201E+00  1580   0.319E+00    0.939E+00
RMM:  13    -0.117740978164E+04    0.16855E+00   -0.62012E-01  1691   0.149E+00    0.720E+00
RMM:  14    -0.117710739865E+04    0.30238E+00   -0.83323E-01  1564   0.967E-01    0.443E+00
RMM:  15    -0.117701318148E+04    0.94217E-01   -0.37832E-01  1551   0.902E-01    0.281E+00
RMM:  16    -0.117696405930E+04    0.49122E-01   -0.19016E-01  1541   0.622E-01    0.182E+00
RMM:  17    -0.117694896730E+04    0.15092E-01   -0.56393E-02  1575   0.355E-01    0.839E-01
RMM:  18    -0.117694973620E+04   -0.76890E-03   -0.23206E-02  1622   0.229E-01    0.474E-01
RMM:  19    -0.117695076893E+04   -0.10327E-02   -0.43719E-03  1696   0.119E-01    0.363E-01
RMM:  20    -0.117695099568E+04   -0.22674E-03   -0.10814E-03  1705   0.499E-02    0.302E-01
RMM:  21    -0.117695100878E+04   -0.13105E-04   -0.32768E-04  1579   0.259E-02    0.225E-01
RMM:  22    -0.117695073966E+04    0.26913E-03   -0.36874E-04  1599   0.248E-02    0.134E-01
RMM:  23    -0.117695075288E+04   -0.13223E-04   -0.91709E-05  1713   0.131E-02    0.109E-01
RMM:  24    -0.117695076772E+04   -0.14845E-04   -0.42357E-05  1584   0.872E-03    0.726E-02
RMM:  25    -0.117695075426E+04    0.13463E-04   -0.21052E-05  1559   0.653E-03    0.544E-02
RMM:  26    -0.117695074619E+04    0.80724E-05   -0.35358E-05  1613   0.728E-03    0.230E-02
RMM:  27    -0.117695074688E+04   -0.68833E-06   -0.77109E-06  1366   0.403E-03
   1 F= -.11840865E+04 E0= -.11840865E+04  d E =-.118409E+04  mag=    -0.9982
       N       E                     dE             d eps       ncg     rms          rms(c)
DAV:   1    -0.117694850744E+04    0.22387E-02   -0.35604E-01  1600   0.113E+00    0.157E-01
RMM:   2    -0.117694947667E+04   -0.96923E-03   -0.11934E-02  1597   0.174E-01    0.128E-01
RMM:   3    -0.117694959733E+04   -0.12066E-03   -0.19048E-03  1768   0.687E-02    0.110E-01
RMM:   4    -0.117694957467E+04    0.22658E-04   -0.37555E-04  1693   0.300E-02    0.800E-02
RMM:   5    -0.117694953803E+04    0.36649E-04   -0.31933E-04  1578   0.252E-02    0.423E-02
RMM:   6    -0.117694959054E+04   -0.52514E-04   -0.73903E-05  1820   0.135E-02    0.311E-02
RMM:   7    -0.117694960680E+04   -0.16258E-04   -0.17303E-05  1540   0.638E-03    0.163E-02
RMM:   8    -0.117694961670E+04   -0.98973E-05   -0.10923E-05  1537   0.482E-03    0.844E-03
RMM:   9    -0.117694961818E+04   -0.14852E-05   -0.48514E-06  1356   0.322E-03    0.574E-03
RMM:  10    -0.117694961849E+04   -0.31343E-06   -0.14013E-06  1004   0.218E-03
   2 F= -.11840861E+04 E0= -.11840861E+04  d E =0.401654E-03  mag=    -1.0000
       N       E                     dE             d eps       ncg     rms          rms(c)
DAV:   1    -0.117695065583E+04   -0.10376E-02   -0.11576E-01  1728   0.642E-01    0.899E-02
RMM:   2    -0.117695090453E+04   -0.24871E-03   -0.34945E-03  1577   0.968E-02    0.729E-02
RMM:   3    -0.117695093203E+04   -0.27500E-04   -0.50059E-04  1690   0.370E-02    0.613E-02
RMM:   4    -0.117695092973E+04    0.22971E-05   -0.13185E-04  1645   0.180E-02    0.406E-02
RMM:   5    -0.117695092480E+04    0.49366E-05   -0.82992E-05  1567   0.134E-02    0.238E-02
RMM:   6    -0.117695094936E+04   -0.24568E-04   -0.21660E-05  1768   0.747E-03    0.172E-02
RMM:   7    -0.117695095379E+04   -0.44206E-05   -0.59539E-06  1402   0.372E-03    0.848E-03
RMM:   8    -0.117695095804E+04   -0.42578E-05   -0.31823E-06  1142   0.267E-03    0.470E-03
RMM:   9    -0.117695095816E+04   -0.12125E-06   -0.12212E-06  1003   0.186E-03
   3 F= -.11840871E+04 E0= -.11840871E+04  d E =-.523849E-03  mag=    -1.0000
       N       E                     dE             d eps       ncg     rms          rms(c)
DAV:   1    -0.117695053317E+04    0.42487E-03   -0.18810E-01  1824   0.807E-01    0.115E-01
RMM:   2    -0.117695101317E+04   -0.48000E-03   -0.63723E-03  1569   0.112E-01    0.846E-02
RMM:   3    -0.117695109911E+04   -0.85940E-04   -0.79920E-04  1672   0.416E-02    0.687E-02
RMM:   4    -0.117695114909E+04   -0.49974E-04   -0.15674E-04  1692   0.176E-02    0.518E-02
RMM:   5    -0.117695115712E+04   -0.80366E-05   -0.69140E-05  1568   0.120E-02    0.271E-02
RMM:   6    -0.117695121668E+04   -0.59561E-04   -0.18760E-05  1637   0.710E-03    0.145E-02
RMM:   7    -0.117695122326E+04   -0.65749E-05   -0.47311E-06  1151   0.362E-03    0.784E-03
RMM:   8    -0.117695122687E+04   -0.36066E-05   -0.17025E-06  1036   0.212E-03    0.547E-03
RMM:   9    -0.117695122775E+04   -0.88120E-06   -0.28020E-06  1128   0.224E-03
   4 F= -.11840878E+04 E0= -.11840878E+04  d E =-.767550E-03  mag=    -1.0000
       N       E                     dE             d eps       ncg     rms          rms(c)
DAV:   1    -0.117695098514E+04    0.24173E-03   -0.32091E-02  1664   0.333E-01    0.477E-02
RMM:   2    -0.117695104678E+04   -0.61645E-04   -0.10880E-03  1571   0.464E-02    0.353E-02
RMM:   3    -0.117695106217E+04   -0.15383E-04   -0.13138E-04  1673   0.171E-02    0.287E-02
RMM:   4    -0.117695107931E+04   -0.17139E-04   -0.27033E-05  1632   0.737E-03    0.212E-02
RMM:   5    -0.117695108680E+04   -0.74941E-05   -0.12048E-05  1484   0.507E-03    0.113E-02
RMM:   6    -0.117695110315E+04   -0.16347E-04   -0.30592E-06  1068   0.309E-03    0.559E-03
RMM:   7    -0.117695110447E+04   -0.13194E-05   -0.86265E-07  1023   0.191E-03    0.320E-03
RMM:   8    -0.117695110509E+04   -0.61955E-06   -0.32472E-07   988   0.103E-03
   5 F= -.11840879E+04 E0= -.11840879E+04  d E =-.850323E-03  mag=    -1.0000
       N       E                     dE             d eps       ncg     rms          rms(c)
DAV:   1    -0.117695080108E+04    0.30338E-03   -0.13601E-01  1664   0.676E-01    0.968E-02
RMM:   2    -0.117695117339E+04   -0.37230E-03   -0.50291E-03  1568   0.968E-02    0.705E-02
RMM:   3    -0.117695123972E+04   -0.66333E-04   -0.61433E-04  1681   0.361E-02    0.577E-02
RMM:   4    -0.117695126965E+04   -0.29934E-04   -0.87713E-05  1705   0.144E-02    0.451E-02
RMM:   5    -0.117695129001E+04   -0.20355E-04   -0.50446E-05  1549   0.106E-02    0.235E-02
RMM:   6    -0.117695132325E+04   -0.33245E-04   -0.15847E-05  1571   0.624E-03    0.136E-02
RMM:   7    -0.117695134127E+04   -0.18014E-04   -0.44453E-06  1146   0.390E-03    0.693E-03
RMM:   8    -0.117695134358E+04   -0.23122E-05   -0.12989E-06  1030   0.221E-03    0.489E-03
RMM:   9    -0.117695134386E+04   -0.28290E-06   -0.17542E-06  1012   0.190E-03
   6 F= -.11840885E+04 E0= -.11840885E+04  d E =-.599577E-03  mag=    -1.0000
       N       E                     dE             d eps       ncg     rms          rms(c)
DAV:   1    -0.117695081714E+04    0.52643E-03   -0.98289E-02  1664   0.575E-01    0.824E-02
RMM:   2    -0.117695107595E+04   -0.25880E-03   -0.36372E-03  1568   0.824E-02    0.602E-02
RMM:   3    -0.117695112406E+04   -0.48115E-04   -0.44457E-04  1680   0.308E-02    0.493E-02
RMM:   4    -0.117695114864E+04   -0.24572E-04   -0.64111E-05  1680   0.123E-02    0.386E-02
RMM:   5    -0.117695116724E+04   -0.18608E-04   -0.36522E-05  1548   0.906E-03    0.202E-02
RMM:   6    -0.117695119416E+04   -0.26921E-04   -0.11957E-05  1562   0.544E-03    0.118E-02
RMM:   7    -0.117695120891E+04   -0.14749E-04   -0.32493E-06  1084   0.344E-03    0.594E-03
RMM:   8    -0.117695121064E+04   -0.17310E-05   -0.96957E-07  1019   0.200E-03    0.414E-03
RMM:   9    -0.117695121077E+04   -0.12696E-06   -0.13631E-06   999   0.167E-03
   7 F= -.11840887E+04 E0= -.11840887E+04  d E =-.773166E-03  mag=    -1.0000
       N       E                     dE             d eps       ncg     rms          rms(c)
DAV:   1    -0.117695074377E+04    0.46688E-03   -0.16145E-01  1600   0.682E-01    0.104E-01
RMM:   2    -0.117695109654E+04   -0.35277E-03   -0.51128E-03  1571   0.953E-02    0.794E-02
RMM:   3    -0.117695116565E+04   -0.69113E-04   -0.60356E-04  1651   0.353E-02    0.632E-02
RMM:   4    -0.117695121078E+04   -0.45130E-04   -0.97599E-05  1658   0.152E-02    0.450E-02
RMM:   5    -0.117695123167E+04   -0.20887E-04   -0.59266E-05  1545   0.109E-02    0.232E-02
RMM:   6    -0.117695128053E+04   -0.48863E-04   -0.14074E-05  1582   0.617E-03    0.121E-02
RMM:   7    -0.117695129292E+04   -0.12388E-04   -0.36706E-06  1097   0.335E-03    0.751E-03
RMM:   8    -0.117695129398E+04   -0.10630E-05   -0.24813E-06  1059   0.233E-03    0.391E-03
RMM:   9    -0.117695129402E+04   -0.32094E-07   -0.84564E-07  1002   0.157E-03
   8 F= -.11840892E+04 E0= -.11840892E+04  d E =-.511606E-03  mag=    -1.0000
