       N       E                     dE             d eps       ncg     rms          rms(c)
DAV:   1     0.518429179253E+04    0.51843E+04   -0.17924E+05  1784   0.990E+02
DAV:   2     0.778808236933E+02   -0.51064E+04   -0.46593E+04  2328   0.232E+02
DAV:   3    -0.119081812445E+04   -0.12687E+04   -0.12568E+04  1984   0.124E+02
DAV:   4    -0.125100213959E+04   -0.60184E+02   -0.59490E+02  1896   0.359E+01
DAV:   5    -0.125272581888E+04   -0.17237E+01   -0.17139E+01  2120   0.618E+00    0.840E+01
RMM:   6    -0.123876182466E+04    0.13964E+02   -0.12031E+02  1658   0.174E+01    0.927E+01
RMM:   7    -0.122436777041E+04    0.14394E+02   -0.17987E+01  1508   0.739E+00    0.629E+01
RMM:   8    -0.120658352508E+04    0.17784E+02   -0.13803E+01  1508   0.576E+00    0.411E+01
RMM:   9    -0.119321212349E+04    0.13371E+02   -0.16125E+01  1517   0.541E+00    0.327E+01
RMM:  10    -0.117868756939E+04    0.14525E+02   -0.23633E+01  1604   0.671E+00    0.215E+01
RMM:  11    -0.117654952252E+04    0.21380E+01   -0.10697E+01  1498   0.468E+00    0.135E+01
RMM:  12    -0.117697426130E+04   -0.42474E+00   -0.60266E+00  1510   0.377E+00    0.889E+00
RMM:  13    -0.117691979089E+04    0.54470E-01   -0.12415E+00  1614   0.200E+00    0.832E+00
RMM:  14    -0.117676312446E+04    0.15667E+00   -0.29113E-01  1562   0.916E-01    0.630E+00
RMM:  15    -0.117644629069E+04    0.31683E+00   -0.78827E-01  1528   0.128E+00    0.237E+00
RMM:  16    -0.117632556857E+04    0.12072E+00   -0.29640E-01  1496   0.779E-01    0.131E+00
RMM:  17    -0.117632426557E+04    0.13030E-02   -0.57055E-02  1582   0.409E-01    0.890E-01
RMM:  18    -0.117632257709E+04    0.16885E-02   -0.13733E-02  1544   0.225E-01    0.565E-01
RMM:  19    -0.117632351124E+04   -0.93415E-03   -0.87265E-03  1512   0.132E-01    0.400E-01
RMM:  20    -0.117632380000E+04   -0.28876E-03   -0.26955E-03  1608   0.101E-01    0.234E-01
RMM:  21    -0.117632394878E+04   -0.14879E-03   -0.94601E-04  1651   0.434E-02    0.179E-01
RMM:  22    -0.117632394308E+04    0.57035E-05   -0.28235E-04  1530   0.257E-02    0.138E-01
RMM:  23    -0.117632399776E+04   -0.54680E-04   -0.26478E-04  1542   0.253E-02    0.699E-02
RMM:  24    -0.117632400232E+04   -0.45551E-05   -0.60915E-05  1645   0.127E-02    0.480E-02
RMM:  25    -0.117632399381E+04    0.85083E-05   -0.21022E-05  1513   0.707E-03    0.304E-02
RMM:  26    -0.117632398906E+04    0.47453E-05   -0.76688E-06  1314   0.413E-03    0.184E-02
RMM:  27    -0.117632398789E+04    0.11705E-05   -0.38377E-06  1152   0.277E-03    0.141E-02
RMM:  28    -0.117632398776E+04    0.13223E-06   -0.10097E-06   969   0.187E-03
   1 F= -.11834648E+04 E0= -.11834648E+04  d E =-.118346E+04  mag=    -0.0001
