       N       E                     dE             d eps       ncg     rms          rms(c)
DAV:   1     0.480088940692E+04    0.48009E+04   -0.18046E+05  1944   0.933E+02
DAV:   2    -0.700794348508E+02   -0.48710E+04   -0.44608E+04  2556   0.209E+02
DAV:   3    -0.120235451474E+04   -0.11323E+04   -0.11279E+04  2232   0.110E+02
DAV:   4    -0.124797133118E+04   -0.45617E+02   -0.45309E+02  2052   0.278E+01
DAV:   5    -0.124931020707E+04   -0.13389E+01   -0.13349E+01  2556   0.408E+00    0.641E+01
RMM:   6    -0.123605277335E+04    0.13257E+02   -0.76016E+00  1586   0.322E+00    0.525E+01
RMM:   7    -0.119330981653E+04    0.42743E+02   -0.75896E+01  1586   0.994E+00    0.292E+01
RMM:   8    -0.118493404086E+04    0.83758E+01   -0.21794E+01  1590   0.545E+00    0.183E+01
RMM:   9    -0.118446219674E+04    0.47184E+00   -0.16643E+01  1586   0.467E+00    0.105E+01
RMM:  10    -0.118459837599E+04   -0.13618E+00   -0.15822E+00  1634   0.151E+00    0.679E+00
RMM:  11    -0.118385151035E+04    0.74687E+00   -0.23136E+00  1587   0.172E+00    0.292E+00
RMM:  12    -0.118369224721E+04    0.15926E+00   -0.29781E-01  1592   0.633E-01    0.187E+00
RMM:  13    -0.118371649905E+04   -0.24252E-01   -0.76078E-02  1622   0.288E-01    0.139E+00
RMM:  14    -0.118371160294E+04    0.48961E-02   -0.75281E-02  1615   0.300E-01    0.539E-01
RMM:  15    -0.118371177875E+04   -0.17581E-03   -0.92625E-03  1825   0.105E-01    0.447E-01
RMM:  16    -0.118371101543E+04    0.76332E-03   -0.26143E-03  1649   0.531E-02    0.328E-01
RMM:  17    -0.118371157920E+04   -0.56377E-03   -0.63882E-03  1643   0.891E-02    0.153E-01
RMM:  18    -0.118371185242E+04   -0.27322E-03   -0.90616E-04  1439   0.325E-02    0.794E-02
RMM:  19    -0.118371189325E+04   -0.40825E-04   -0.25521E-04  1158   0.200E-02
   1 F= -.11908966E+04 E0= -.11908835E+04  d E =-.119090E+04  mag=     0.3224
       N       E                     dE             d eps       ncg     rms          rms(c)
DAV:   1    -0.118370588256E+04    0.59699E-02   -0.37815E+00  1620   0.287E+00    0.806E-01
RMM:   2    -0.118371198894E+04   -0.61064E-02   -0.86327E-02  1659   0.383E-01    0.747E-01
RMM:   3    -0.118371075806E+04    0.12309E-02   -0.50303E-03  1817   0.799E-02    0.664E-01
RMM:   4    -0.118371136946E+04   -0.61139E-03   -0.83258E-03  1599   0.102E-01    0.224E-01
RMM:   5    -0.118371096726E+04    0.40219E-03   -0.51465E-04  1301   0.258E-02    0.964E-02
RMM:   6    -0.118371085983E+04    0.10744E-03   -0.32584E-04  1227   0.185E-02    0.614E-02
RMM:   7    -0.118371087533E+04   -0.15507E-04   -0.11140E-04  1042   0.129E-02
   2 F= -.11908965E+04 E0= -.11908834E+04  d E =0.107315E-03  mag=     0.2961
       N       E                     dE             d eps       ncg     rms          rms(c)
DAV:   1    -0.118371525333E+04   -0.43935E-02   -0.91461E-01  1692   0.141E+00    0.394E-01
RMM:   2    -0.118371647476E+04   -0.12214E-02   -0.18979E-02  1648   0.182E-01    0.365E-01
RMM:   3    -0.118371614045E+04    0.33431E-03   -0.99803E-04  1446   0.369E-02    0.318E-01
RMM:   4    -0.118371640379E+04   -0.26335E-03   -0.20458E-03  1568   0.511E-02    0.106E-01
RMM:   5    -0.118371624850E+04    0.15529E-03   -0.18779E-04  1120   0.147E-02    0.402E-02
RMM:   6    -0.118371624000E+04    0.85023E-05   -0.33259E-05   999   0.769E-03
   3 F= -.11909014E+04 E0= -.11908882E+04  d E =-.480384E-02  mag=     0.2866
       N       E                     dE             d eps       ncg     rms          rms(c)
DAV:   1    -0.118371417993E+04    0.20686E-02   -0.22775E+00  1656   0.215E+00    0.590E-01
RMM:   2    -0.118371709568E+04   -0.29157E-02   -0.46781E-02  1622   0.275E-01    0.514E-01
RMM:   3    -0.118371593799E+04    0.11577E-02   -0.20607E-03  1755   0.563E-02    0.430E-01
RMM:   4    -0.118371682675E+04   -0.88875E-03   -0.48460E-03  1606   0.762E-02    0.157E-01
RMM:   5    -0.118371656939E+04    0.25736E-03   -0.34655E-04  1205   0.202E-02    0.746E-02
RMM:   6    -0.118371655358E+04    0.15805E-04   -0.21716E-04  1136   0.150E-02
   4 F= -.11909026E+04 E0= -.11908892E+04  d E =-.111751E-02  mag=     0.2701
       N       E                     dE             d eps       ncg     rms          rms(c)
DAV:   1    -0.118371798710E+04   -0.14177E-02   -0.44467E-01  1656   0.951E-01    0.261E-01
RMM:   2    -0.118371840240E+04   -0.41530E-03   -0.89334E-03  1622   0.121E-01    0.230E-01
RMM:   3    -0.118371812470E+04    0.27770E-03   -0.38699E-04  1244   0.256E-02    0.192E-01
RMM:   4    -0.118371834174E+04   -0.21704E-03   -0.12684E-03  1564   0.395E-02    0.722E-02
RMM:   5    -0.118371828884E+04    0.52899E-04   -0.84099E-05  1046   0.109E-02
   5 F= -.11909039E+04 E0= -.11908905E+04  d E =-.249578E-02  mag=     0.2621
       N       E                     dE             d eps       ncg     rms          rms(c)
DAV:   1    -0.118371794512E+04    0.39662E-03   -0.13631E+00  1692   0.169E+00    0.324E-01
RMM:   2    -0.118371963099E+04   -0.16859E-02   -0.28664E-02  1588   0.225E-01    0.275E-01
RMM:   3    -0.118371889058E+04    0.74041E-03   -0.11158E-03  1511   0.427E-02    0.233E-01
RMM:   4    -0.118371931236E+04   -0.42179E-03   -0.43446E-03  1594   0.732E-02    0.823E-02
RMM:   5    -0.118371915473E+04    0.15763E-03   -0.10886E-04  1080   0.138E-02    0.668E-02
RMM:   6    -0.118371920024E+04   -0.45510E-04   -0.29055E-04  1193   0.168E-02
   6 F= -.11909055E+04 E0= -.11908920E+04  d E =-.155785E-02  mag=     0.2515
       N       E                     dE             d eps       ncg     rms          rms(c)
DAV:   1    -0.118371970997E+04   -0.55524E-03   -0.13646E-01  1728   0.538E-01    0.107E-01
RMM:   2    -0.118371983193E+04   -0.12196E-03   -0.30949E-03  1558   0.763E-02    0.927E-02
RMM:   3    -0.118371970981E+04    0.12212E-03   -0.10338E-04  1034   0.148E-02    0.781E-02
RMM:   4    -0.118371973404E+04   -0.24228E-04   -0.70622E-04  1450   0.295E-02
   7 F= -.11909058E+04 E0= -.11908923E+04  d E =-.188631E-02  mag=     0.2467
       N       E                     dE             d eps       ncg     rms          rms(c)
DAV:   1    -0.118371929819E+04    0.41162E-03   -0.88332E-01  1584   0.140E+00    0.222E-01
RMM:   2    -0.118372030431E+04   -0.10061E-02   -0.17204E-02  1584   0.179E-01    0.184E-01
RMM:   3    -0.118371995956E+04    0.34474E-03   -0.63243E-04  1340   0.338E-02    0.157E-01
RMM:   4    -0.118372027793E+04   -0.31836E-03   -0.19634E-03  1560   0.485E-02    0.519E-02
RMM:   5    -0.118372028186E+04   -0.39322E-05   -0.59361E-05  1046   0.112E-02
   8 F= -.11909068E+04 E0= -.11908932E+04  d E =-.970801E-03  mag=     0.2393
       N       E                     dE             d eps       ncg     rms          rms(c)
DAV:   1    -0.118372052778E+04   -0.24985E-03   -0.79960E-02  1656   0.422E-01    0.657E-02
RMM:   2    -0.118372061778E+04   -0.89998E-04   -0.14492E-03  1457   0.514E-02    0.532E-02
RMM:   3    -0.118372057083E+04    0.46947E-04   -0.57383E-05   984   0.114E-02
   9 F= -.11909070E+04 E0= -.11908934E+04  d E =-.113008E-02  mag=     0.2354
       N       E                     dE             d eps       ncg     rms          rms(c)
DAV:   1    -0.118372054566E+04    0.72112E-04   -0.73404E-01  1584   0.128E+00    0.201E-01
RMM:   2    -0.118372126494E+04   -0.71927E-03   -0.13819E-02  1584   0.164E-01    0.169E-01
RMM:   3    -0.118372101850E+04    0.24644E-03   -0.53551E-04  1274   0.319E-02    0.144E-01
RMM:   4    -0.118372132396E+04   -0.30546E-03   -0.16877E-03  1545   0.451E-02    0.496E-02
RMM:   5    -0.118372130168E+04    0.22277E-04   -0.45167E-05  1030   0.992E-03
  10 F= -.11909079E+04 E0= -.11908942E+04  d E =-.922487E-03  mag=     0.2273
       N       E                     dE             d eps       ncg     rms          rms(c)
DAV:   1    -0.118372137373E+04   -0.49770E-04   -0.28448E-02  1656   0.253E-01    0.374E-02
RMM:   2    -0.118372141756E+04   -0.43836E-04   -0.45833E-04  1130   0.298E-02
  11 F= -.11909080E+04 E0= -.11908943E+04  d E =-.998913E-03  mag=     0.2261
