       N       E                     dE             d eps       ncg     rms          rms(c)
DAV:   1     0.487213691221E+04    0.48721E+04   -0.16943E+05  1728   0.985E+02
DAV:   2    -0.361605703241E+01   -0.48758E+04   -0.44676E+04  2268   0.219E+02
DAV:   3    -0.118201630762E+04   -0.11784E+04   -0.11709E+04  1872   0.119E+02
DAV:   4    -0.123426199789E+04   -0.52246E+02   -0.51903E+02  1836   0.341E+01
DAV:   5    -0.123566673494E+04   -0.14047E+01   -0.14016E+01  2124   0.529E+00    0.663E+01
RMM:   6    -0.121915097236E+04    0.16516E+02   -0.19594E+01  1468   0.527E+00    0.507E+01
RMM:   7    -0.119944375726E+04    0.19707E+02   -0.15444E+01  1440   0.499E+00    0.384E+01
RMM:   8    -0.117389983668E+04    0.25544E+02   -0.36770E+01  1440   0.777E+00    0.248E+01
RMM:   9    -0.116809454763E+04    0.58053E+01   -0.21962E+01  1440   0.632E+00    0.147E+01
RMM:  10    -0.116967676353E+04   -0.15822E+01   -0.92892E+00  1447   0.428E+00    0.799E+00
RMM:  11    -0.116931344919E+04    0.36331E+00   -0.16378E+00  1496   0.191E+00    0.489E+00
RMM:  12    -0.116868744977E+04    0.62600E+00   -0.90541E-01  1440   0.125E+00    0.245E+00
RMM:  13    -0.116859941747E+04    0.88032E-01   -0.26299E-01  1557   0.652E-01    0.171E+00
RMM:  14    -0.116858972924E+04    0.96882E-02   -0.33270E-02  1511   0.248E-01    0.121E+00
RMM:  15    -0.116859312889E+04   -0.33996E-02   -0.60642E-03  1550   0.108E-01    0.985E-01
RMM:  16    -0.116858992259E+04    0.32063E-02   -0.11123E-02  1457   0.123E-01    0.389E-01
RMM:  17    -0.116859014029E+04   -0.21770E-03   -0.15930E-03  1261   0.707E-02    0.152E-01
RMM:  18    -0.116859026496E+04   -0.12467E-03   -0.85309E-04  1232   0.313E-02    0.960E-02
RMM:  19    -0.116859016893E+04    0.96030E-04   -0.11167E-04   915   0.194E-02
   1 F= -.11758824E+04 E0= -.11758824E+04  d E =-.117588E+04  mag=    -0.0001
       N       E                     dE             d eps       ncg     rms          rms(c)
DAV:   1    -0.116858962217E+04    0.64279E-03   -0.36144E-01  1584   0.105E+00    0.173E-01
RMM:   2    -0.116859028879E+04   -0.66662E-03   -0.90438E-03  1445   0.155E-01    0.164E-01
RMM:   3    -0.116859019161E+04    0.97177E-04   -0.63846E-04  1244   0.489E-02
   2 F= -.11758824E+04 E0= -.11758824E+04  d E =0.352770E-04  mag=    -0.0000
       N       E                     dE             d eps       ncg     rms          rms(c)
DAV:   1    -0.116859073910E+04   -0.45031E-03   -0.85535E-02  1656   0.509E-01    0.550E-02
RMM:   2    -0.116859098046E+04   -0.24137E-03   -0.21576E-03  1440   0.792E-02    0.372E-02
RMM:   3    -0.116859099083E+04   -0.10366E-04   -0.10316E-04   883   0.239E-02
   3 F= -.11758832E+04 E0= -.11758832E+04  d E =-.789809E-03  mag=    -0.0000
