       N       E                     dE             d eps       ncg     rms          rms(c)
DAV:   1     0.477028631204E+04    0.47703E+04   -0.17869E+05  1908   0.932E+02
DAV:   2    -0.625540418222E+02   -0.48328E+04   -0.44257E+04  2556   0.210E+02
DAV:   3    -0.118455172757E+04   -0.11220E+04   -0.11160E+04  2016   0.109E+02
DAV:   4    -0.123167566779E+04   -0.47124E+02   -0.46873E+02  2016   0.300E+01
DAV:   5    -0.123284785963E+04   -0.11722E+01   -0.11696E+01  2340   0.433E+00    0.604E+01
RMM:   6    -0.122136111950E+04    0.11487E+02   -0.66979E+00  1584   0.307E+00    0.502E+01
RMM:   7    -0.118685351605E+04    0.34508E+02   -0.44156E+01  1584   0.774E+00    0.309E+01
RMM:   8    -0.117473176788E+04    0.12122E+02   -0.16070E+01  1584   0.467E+00    0.239E+01
RMM:   9    -0.117145993769E+04    0.32718E+01   -0.36367E+01  1584   0.690E+00    0.929E+00
RMM:  10    -0.117139225226E+04    0.67685E-01   -0.10981E+00  1623   0.142E+00    0.599E+00
RMM:  11    -0.117074074250E+04    0.65151E+00   -0.13534E+00  1584   0.130E+00    0.317E+00
RMM:  12    -0.117076019099E+04   -0.19448E-01   -0.25864E-01  1595   0.423E-01    0.238E+00
RMM:  13    -0.117069889426E+04    0.61297E-01   -0.35578E-01  1584   0.663E-01    0.173E+00
RMM:  14    -0.117062755769E+04    0.71337E-01   -0.11675E-01  1600   0.287E-01    0.489E-01
RMM:  15    -0.117062762235E+04   -0.64664E-04   -0.91245E-03  1612   0.842E-02    0.308E-01
RMM:  16    -0.117062778003E+04   -0.15768E-03   -0.15119E-03  1390   0.359E-02    0.213E-01
RMM:  17    -0.117062763622E+04    0.14381E-03   -0.23515E-03  1446   0.416E-02    0.108E-01
RMM:  18    -0.117062791994E+04   -0.28372E-03   -0.89005E-04  1574   0.353E-02    0.592E-02
RMM:  19    -0.117062795151E+04   -0.31575E-04   -0.13535E-04  1041   0.147E-02
   1 F= -.11777980E+04 E0= -.11777980E+04  d E =-.117780E+04  mag=    -0.0001
       N       E                     dE             d eps       ncg     rms          rms(c)
DAV:   1    -0.117062807088E+04   -0.15094E-03   -0.38984E-01  1764   0.936E-01    0.205E-01
RMM:   2    -0.117062841158E+04   -0.34071E-03   -0.10090E-02  1584   0.137E-01    0.182E-01
RMM:   3    -0.117062796980E+04    0.44179E-03   -0.55160E-04  1331   0.305E-02    0.152E-01
RMM:   4    -0.117062751977E+04    0.45003E-03   -0.24229E-03  1584   0.555E-02    0.586E-02
RMM:   5    -0.117062751849E+04    0.12809E-05   -0.90061E-05  1020   0.134E-02
   2 F= -.11777978E+04 E0= -.11777978E+04  d E =0.198034E-03  mag=    -0.0000
       N       E                     dE             d eps       ncg     rms          rms(c)
DAV:   1    -0.117062871264E+04   -0.11929E-02   -0.10464E-01  1728   0.484E-01    0.102E-01
RMM:   2    -0.117062874404E+04   -0.31403E-04   -0.22755E-03  1584   0.677E-02    0.900E-02
RMM:   3    -0.117062859317E+04    0.15088E-03   -0.11187E-04  1002   0.147E-02    0.740E-02
RMM:   4    -0.117062845698E+04    0.13618E-03   -0.79183E-04  1572   0.316E-02    0.251E-02
RMM:   5    -0.117062845916E+04   -0.21786E-05   -0.20756E-05   988   0.693E-03
   3 F= -.11777987E+04 E0= -.11777987E+04  d E =-.620361E-03  mag=    -0.0000
