       N       E                     dE             d eps       ncg     rms          rms(c)
DAV:   1     0.466448528734E+04    0.46645E+04   -0.17524E+05  1908   0.911E+02
DAV:   2    -0.119080916057E+03   -0.47836E+04   -0.43674E+04  2520   0.205E+02
DAV:   3    -0.120354892407E+04   -0.10845E+04   -0.10800E+04  2088   0.106E+02
DAV:   4    -0.124704351920E+04   -0.43495E+02   -0.43286E+02  2052   0.279E+01
DAV:   5    -0.124815912792E+04   -0.11156E+01   -0.11138E+01  2304   0.413E+00    0.647E+01
RMM:   6    -0.123422867876E+04    0.13930E+02   -0.84009E+00  1588   0.319E+00    0.528E+01
RMM:   7    -0.119017753808E+04    0.44051E+02   -0.82689E+01  1588   0.984E+00    0.290E+01
RMM:   8    -0.118093427814E+04    0.92433E+01   -0.35099E+01  1584   0.670E+00    0.142E+01
RMM:   9    -0.118210341949E+04   -0.11691E+01   -0.12607E+01  1585   0.404E+00    0.920E+00
RMM:  10    -0.118103347029E+04    0.10699E+01   -0.55061E+00  1589   0.237E+00    0.407E+00
RMM:  11    -0.118078431339E+04    0.24916E+00   -0.26090E-01  1654   0.536E-01    0.195E+00
RMM:  12    -0.118070218243E+04    0.82131E-01   -0.36519E-01  1603   0.490E-01    0.566E-01
RMM:  13    -0.118069876803E+04    0.34144E-02   -0.55687E-02  1591   0.259E-01    0.346E-01
RMM:  14    -0.118069500708E+04    0.37610E-02   -0.17524E-02  1599   0.131E-01    0.178E-01
RMM:  15    -0.118069512113E+04   -0.11405E-03   -0.34023E-03  1586   0.674E-02    0.108E-01
RMM:  16    -0.118069493860E+04    0.18253E-03   -0.75384E-04  1534   0.300E-02    0.603E-02
RMM:  17    -0.118069499010E+04   -0.51502E-04   -0.19809E-04  1092   0.165E-02
   1 F= -.11880300E+04 E0= -.11880300E+04  d E =-.118803E+04  mag=    -0.0021
       N       E                     dE             d eps       ncg     rms          rms(c)
DAV:   1    -0.118069330347E+04    0.16351E-02   -0.47126E-01  1764   0.100E+00    0.303E-01
RMM:   2    -0.118069546439E+04   -0.21609E-02   -0.28359E-02  1655   0.181E-01    0.259E-01
RMM:   3    -0.118069459520E+04    0.86918E-03   -0.17379E-03  1635   0.439E-02    0.200E-01
RMM:   4    -0.118069416265E+04    0.43255E-03   -0.30797E-03  1584   0.595E-02    0.847E-02
RMM:   5    -0.118069411595E+04    0.46703E-04   -0.15889E-04  1089   0.158E-02
   2 F= -.11880294E+04 E0= -.11880294E+04  d E =0.642313E-03  mag=    -0.0004
       N       E                     dE             d eps       ncg     rms          rms(c)
DAV:   1    -0.118069553755E+04   -0.13749E-02   -0.17203E-01  1656   0.604E-01    0.172E-01
RMM:   2    -0.118069621570E+04   -0.67815E-03   -0.95284E-03  1638   0.103E-01    0.145E-01
RMM:   3    -0.118069585588E+04    0.35982E-03   -0.59382E-04  1186   0.257E-02    0.112E-01
RMM:   4    -0.118069567148E+04    0.18440E-03   -0.12678E-03  1584   0.386E-02    0.476E-02
RMM:   5    -0.118069565671E+04    0.14771E-04   -0.43994E-05  1036   0.924E-03
   3 F= -.11880308E+04 E0= -.11880308E+04  d E =-.756451E-03  mag=    -0.0001
