       N       E                     dE             d eps       ncg     rms          rms(c)
DAV:   1     0.490843771433E+04    0.49084E+04   -0.17399E+05  1872   0.915E+02
DAV:   2    -0.564142053853E+02   -0.49649E+04   -0.45284E+04  2520   0.207E+02
DAV:   3    -0.120123295533E+04   -0.11448E+04   -0.11405E+04  2088   0.110E+02
DAV:   4    -0.124768491107E+04   -0.46452E+02   -0.46224E+02  1980   0.291E+01
DAV:   5    -0.124889340840E+04   -0.12085E+01   -0.12061E+01  2304   0.439E+00    0.650E+01
RMM:   6    -0.123447080041E+04    0.14423E+02   -0.87489E+00  1587   0.328E+00    0.534E+01
RMM:   7    -0.119017792003E+04    0.44293E+02   -0.93873E+01  1587   0.104E+01    0.291E+01
RMM:   8    -0.118509397766E+04    0.50839E+01   -0.11964E+01  1602   0.394E+00    0.211E+01
RMM:   9    -0.118250158112E+04    0.25924E+01   -0.27345E+01  1584   0.588E+00    0.996E+00
RMM:  10    -0.118253466506E+04   -0.33084E-01   -0.16385E+00  1628   0.152E+00    0.719E+00
RMM:  11    -0.118173278954E+04    0.80188E+00   -0.43621E+00  1584   0.222E+00    0.252E+00
RMM:  12    -0.118151439961E+04    0.21839E+00   -0.37419E-01  1613   0.562E-01    0.105E+00
RMM:  13    -0.118149869733E+04    0.15702E-01   -0.44416E-02  1654   0.216E-01    0.705E-01
RMM:  14    -0.118148617728E+04    0.12520E-01   -0.31811E-02  1596   0.189E-01    0.331E-01
RMM:  15    -0.118148695031E+04   -0.77303E-03   -0.59610E-03  1634   0.847E-02    0.294E-01
RMM:  16    -0.118148605349E+04    0.89682E-03   -0.48775E-03  1584   0.735E-02    0.146E-01
RMM:  17    -0.118148614869E+04   -0.95198E-04   -0.88102E-04  1468   0.339E-02
   1 F= -.11888157E+04 E0= -.11888157E+04  d E =-.118882E+04  mag=     0.0020
       N       E                     dE             d eps       ncg     rms          rms(c)
DAV:   1    -0.118148317001E+04    0.28835E-02   -0.37693E-01  1692   0.899E-01    0.283E-01
RMM:   2    -0.118148456865E+04   -0.13986E-02   -0.16510E-02  1668   0.153E-01    0.239E-01
RMM:   3    -0.118148430817E+04    0.26048E-03   -0.86971E-04  1358   0.338E-02    0.193E-01
RMM:   4    -0.118148430896E+04   -0.78855E-06   -0.12612E-03  1557   0.385E-02    0.866E-02
RMM:   5    -0.118148424820E+04    0.60756E-04   -0.10802E-04  1052   0.120E-02
   2 F= -.11888143E+04 E0= -.11888143E+04  d E =0.138027E-02  mag=     0.0003
       N       E                     dE             d eps       ncg     rms          rms(c)
DAV:   1    -0.118148608357E+04   -0.17746E-02   -0.18203E-01  1620   0.625E-01    0.187E-01
RMM:   2    -0.118148660467E+04   -0.52110E-03   -0.69590E-03  1665   0.997E-02    0.160E-01
RMM:   3    -0.118148641824E+04    0.18643E-03   -0.35312E-04  1152   0.216E-02    0.131E-01
RMM:   4    -0.118148636509E+04    0.53157E-04   -0.76608E-04  1479   0.295E-02
   3 F= -.11888161E+04 E0= -.11888161E+04  d E =-.374735E-03  mag=    -0.0000
