       N       E                     dE             d eps       ncg     rms          rms(c)
DAV:   1     0.524162339692E+04    0.52416E+04   -0.17274E+05  1800   0.930E+02
DAV:   2     0.615059460662E+02   -0.51801E+04   -0.47194E+04  2484   0.220E+02
DAV:   3    -0.118258204696E+04   -0.12441E+04   -0.12363E+04  2124   0.117E+02
DAV:   4    -0.123925290759E+04   -0.56671E+02   -0.56229E+02  2016   0.336E+01
DAV:   5    -0.124162663714E+04   -0.23737E+01   -0.23677E+01  2520   0.682E+00    0.603E+01
RMM:   6    -0.122937440230E+04    0.12252E+02   -0.59596E+00  1789   0.331E+00    0.490E+01
RMM:   7    -0.118859707197E+04    0.40777E+02   -0.55242E+01  1959   0.982E+00    0.287E+01
RMM:   8    -0.117783228275E+04    0.10765E+02   -0.24071E+01  1947   0.835E+00    0.175E+01
RMM:   9    -0.117842104324E+04   -0.58876E+00   -0.21708E+01  2030   0.793E+00    0.925E+00
RMM:  10    -0.117769056795E+04    0.73048E+00   -0.16686E+00  2048   0.290E+00    0.449E+00
RMM:  11    -0.117747233087E+04    0.21824E+00   -0.10000E+00  1928   0.151E+00    0.166E+00
RMM:  12    -0.117746289618E+04    0.94347E-02   -0.14743E-01  1912   0.109E+00    0.848E-01
RMM:  13    -0.117746466537E+04   -0.17692E-02   -0.14929E-01  1946   0.634E-01    0.537E-01
RMM:  14    -0.117745452345E+04    0.10142E-01   -0.39049E-02  1933   0.405E-01    0.207E-01
RMM:  15    -0.117745584491E+04   -0.13215E-02   -0.10441E-02  2013   0.204E-01    0.223E-01
RMM:  16    -0.117745550003E+04    0.34488E-03   -0.42632E-03  1809   0.112E-01    0.101E-01
RMM:  17    -0.117745553480E+04   -0.34775E-04   -0.78572E-04  1552   0.106E-01
   1 F= -.11851622E+04 E0= -.11851622E+04  d E =-.118516E+04  mag=     0.9931
       N       E                     dE             d eps       ncg     rms          rms(c)
DAV:   1    -0.117745260616E+04    0.28939E-02   -0.50622E-01  1872   0.115E+00    0.201E-01
RMM:   2    -0.117745335562E+04   -0.74945E-03   -0.13330E-02  1943   0.183E-01    0.190E-01
RMM:   3    -0.117745323498E+04    0.12063E-03   -0.10778E-03  1475   0.978E-02    0.170E-01
RMM:   4    -0.117745256609E+04    0.66890E-03   -0.27214E-03  2010   0.922E-02    0.638E-02
RMM:   5    -0.117745258592E+04   -0.19836E-04   -0.23186E-04  1103   0.397E-02
   2 F= -.11851600E+04 E0= -.11851600E+04  d E =0.214670E-02  mag=     0.9991
       N       E                     dE             d eps       ncg     rms          rms(c)
DAV:   1    -0.117745619357E+04   -0.36275E-02   -0.22589E-01  1980   0.764E-01    0.132E-01
RMM:   2    -0.117745643369E+04   -0.24012E-03   -0.53255E-03  1895   0.120E-01    0.123E-01
RMM:   3    -0.117745628501E+04    0.14869E-03   -0.34871E-04  1217   0.589E-02    0.107E-01
RMM:   4    -0.117745593408E+04    0.35093E-03   -0.15219E-03  1908   0.607E-02    0.356E-02
RMM:   5    -0.117745594839E+04   -0.14310E-04   -0.10166E-04  1057   0.354E-02
   3 F= -.11851628E+04 E0= -.11851628E+04  d E =-.686096E-03  mag=     0.9998
