       N       E                     dE             d eps       ncg     rms          rms(c)
DAV:   1     0.529105877922E+04    0.52911E+04   -0.17311E+05  1800   0.932E+02
DAV:   2     0.658240639271E+02   -0.52252E+04   -0.47634E+04  2520   0.221E+02
DAV:   3    -0.118553796156E+04   -0.12514E+04   -0.12446E+04  2088   0.118E+02
DAV:   4    -0.124105213807E+04   -0.55514E+02   -0.55038E+02  2016   0.330E+01
DAV:   5    -0.124337924266E+04   -0.23271E+01   -0.23211E+01  2556   0.690E+00    0.605E+01
RMM:   6    -0.123102767619E+04    0.12352E+02   -0.55374E+00  1691   0.322E+00    0.492E+01
RMM:   7    -0.119006146928E+04    0.40966E+02   -0.60350E+01  2043   0.103E+01    0.285E+01
RMM:   8    -0.117825684566E+04    0.11805E+02   -0.49217E+01  1875   0.100E+01    0.122E+01
RMM:   9    -0.118005093662E+04   -0.17941E+01   -0.67001E+00  1845   0.969E+00    0.934E+00
RMM:  10    -0.117989161101E+04    0.15933E+00   -0.16034E+00  1881   0.437E+00    0.538E+00
RMM:  11    -0.117935877710E+04    0.53283E+00   -0.18239E+00  1967   0.248E+00    0.203E+00
RMM:  12    -0.117931392629E+04    0.44851E-01   -0.23368E-01  2036   0.111E+00    0.102E+00
RMM:  13    -0.117930287401E+04    0.11052E-01   -0.81205E-02  2046   0.466E-01    0.455E-01
RMM:  14    -0.117930242177E+04    0.45225E-03   -0.21101E-02  2041   0.226E-01    0.255E-01
RMM:  15    -0.117930315515E+04   -0.73338E-03   -0.47637E-03  2023   0.108E-01    0.176E-01
RMM:  16    -0.117930338702E+04   -0.23187E-03   -0.16143E-03  1898   0.637E-02    0.132E-01
RMM:  17    -0.117930383756E+04   -0.45055E-03   -0.97189E-04  1717   0.575E-02    0.757E-02
RMM:  18    -0.117930387884E+04   -0.41275E-04   -0.99441E-04  1724   0.572E-02
   1 F= -.11870159E+04 E0= -.11870106E+04  d E =-.118702E+04  mag=    -0.8400
       N       E                     dE             d eps       ncg     rms          rms(c)
DAV:   1    -0.117930127911E+04    0.25585E-02   -0.62281E-01  1872   0.128E+00    0.229E-01
RMM:   2    -0.117930229613E+04   -0.10170E-02   -0.17893E-02  1978   0.214E-01    0.211E-01
RMM:   3    -0.117930201824E+04    0.27789E-03   -0.12637E-03  1576   0.102E-01    0.186E-01
RMM:   4    -0.117930119349E+04    0.82476E-03   -0.45983E-03  2023   0.109E-01    0.660E-02
RMM:   5    -0.117930123992E+04   -0.46428E-04   -0.30465E-04  1147   0.473E-02
   2 F= -.11870138E+04 E0= -.11870087E+04  d E =0.203199E-02  mag=    -0.8455
       N       E                     dE             d eps       ncg     rms          rms(c)
DAV:   1    -0.117930467567E+04   -0.34822E-02   -0.25784E-01  1836   0.819E-01    0.132E-01
RMM:   2    -0.117930503366E+04   -0.35799E-03   -0.62597E-03  1907   0.134E-01    0.119E-01
RMM:   3    -0.117930490270E+04    0.13096E-03   -0.45182E-04  1254   0.683E-02    0.103E-01
RMM:   4    -0.117930463303E+04    0.26967E-03   -0.18513E-03  1916   0.662E-02    0.351E-02
RMM:   5    -0.117930464136E+04   -0.83323E-05   -0.10558E-04  1061   0.366E-02
   3 F= -.11870169E+04 E0= -.11870117E+04  d E =-.976272E-03  mag=    -0.8443
