       N       E                     dE             d eps       ncg     rms          rms(c)
DAV:   1     0.515167971546E+04    0.51517E+04   -0.17813E+05  1756   0.996E+02
DAV:   2     0.954657478433E+02   -0.50562E+04   -0.46175E+04  2320   0.227E+02
DAV:   3    -0.118449630424E+04   -0.12800E+04   -0.12637E+04  1960   0.123E+02
DAV:   4    -0.124662603948E+04   -0.62130E+02   -0.61072E+02  1904   0.348E+01
DAV:   5    -0.124825628609E+04   -0.16302E+01   -0.16172E+01  2016   0.544E+00    0.694E+01
RMM:   6    -0.122839363584E+04    0.19863E+02   -0.24597E+01  1702   0.529E+00    0.561E+01
RMM:   7    -0.121178787620E+04    0.16606E+02   -0.11902E+01  1488   0.495E+00    0.449E+01
RMM:   8    -0.118551210051E+04    0.26276E+02   -0.35455E+01  1512   0.786E+00    0.286E+01
RMM:   9    -0.117773022766E+04    0.77819E+01   -0.20063E+01  1493   0.635E+00    0.214E+01
RMM:  10    -0.117792439470E+04   -0.19417E+00   -0.14548E+01  1503   0.546E+00    0.108E+01
RMM:  11    -0.117837719689E+04   -0.45280E+00   -0.22912E+00  1573   0.271E+00    0.808E+00
RMM:  12    -0.117835653276E+04    0.20664E-01   -0.69140E-01  1684   0.130E+00    0.518E+00
RMM:  13    -0.117787199045E+04    0.48454E+00   -0.16488E+00  1501   0.166E+00    0.239E+00
RMM:  14    -0.117785155157E+04    0.20439E-01   -0.21808E-01  1534   0.782E-01    0.840E-01
RMM:  15    -0.117785390673E+04   -0.23552E-02   -0.76336E-02  1545   0.413E-01    0.553E-01
RMM:  16    -0.117784906827E+04    0.48385E-02   -0.14152E-02  1525   0.204E-01    0.360E-01
RMM:  17    -0.117784757664E+04    0.14916E-02   -0.14125E-02  1482   0.152E-01    0.224E-01
RMM:  18    -0.117784786816E+04   -0.29152E-03   -0.40606E-03  1147   0.917E-02
   1 F= -.11852403E+04 E0= -.11852403E+04  d E =-.118524E+04  mag=    -0.9753
       N       E                     dE             d eps       ncg     rms          rms(c)
DAV:   1    -0.117784837012E+04   -0.79348E-03   -0.11395E-02  1516   0.198E-01    0.131E-01
RMM:   2    -0.117784843362E+04   -0.63507E-04   -0.74746E-04   935   0.489E-02
   2 F= -.11852408E+04 E0= -.11852408E+04  d E =-.504028E-03  mag=    -0.9854
