       N       E                     dE             d eps       ncg     rms          rms(c)
DAV:   1     0.484764886349E+04    0.48476E+04   -0.18040E+05  1908   0.933E+02
DAV:   2    -0.811844763800E+02   -0.49288E+04   -0.45274E+04  2520   0.210E+02
DAV:   3    -0.120341682122E+04   -0.11222E+04   -0.11161E+04  2088   0.109E+02
DAV:   4    -0.124888454062E+04   -0.45468E+02   -0.45171E+02  2016   0.289E+01
DAV:   5    -0.125000119216E+04   -0.11167E+01   -0.11136E+01  2448   0.408E+00    0.684E+01
RMM:   6    -0.123263762787E+04    0.17364E+02   -0.27141E+01  1584   0.514E+00    0.549E+01
RMM:   7    -0.121763966184E+04    0.14998E+02   -0.83059E+00  1584   0.334E+00    0.433E+01
RMM:   8    -0.119107981591E+04    0.26560E+02   -0.33394E+01  1584   0.668E+00    0.279E+01
RMM:   9    -0.118062901293E+04    0.10451E+02   -0.19520E+01  1584   0.511E+00    0.194E+01
RMM:  10    -0.118141532830E+04   -0.78632E+00   -0.15833E+01  1584   0.451E+00    0.942E+00
RMM:  11    -0.118132386605E+04    0.91462E-01   -0.11434E+00  1617   0.135E+00    0.672E+00
RMM:  12    -0.118077500983E+04    0.54886E+00   -0.71721E-01  1584   0.919E-01    0.403E+00
RMM:  13    -0.118053070191E+04    0.24431E+00   -0.71921E-01  1584   0.980E-01    0.150E+00
RMM:  14    -0.118049827649E+04    0.32425E-01   -0.93523E-02  1594   0.335E-01    0.534E-01
RMM:  15    -0.118049832637E+04   -0.49885E-04   -0.10695E-02  1597   0.125E-01    0.359E-01
RMM:  16    -0.118049788391E+04    0.44246E-03   -0.40104E-03  1605   0.756E-02    0.217E-01
RMM:  17    -0.118049803256E+04   -0.14865E-03   -0.15132E-03  1540   0.452E-02    0.111E-01
RMM:  18    -0.118049799084E+04    0.41721E-04   -0.33810E-04  1144   0.219E-02
   1 F= -.11877086E+04 E0= -.11877086E+04  d E =-.118771E+04  mag=     1.0034
       N       E                     dE             d eps       ncg     rms          rms(c)
DAV:   1    -0.118049434779E+04    0.36848E-02   -0.12831E+00  1656   0.186E+00    0.519E-01
RMM:   2    -0.118049844282E+04   -0.40950E-02   -0.47551E-02  1584   0.292E-01    0.508E-01
RMM:   3    -0.118049797058E+04    0.47224E-03   -0.21999E-03  1624   0.517E-02    0.476E-01
RMM:   4    -0.118049740443E+04    0.56615E-03   -0.32568E-03  1584   0.670E-02    0.169E-01
RMM:   5    -0.118049754979E+04   -0.14535E-03   -0.70467E-04  1570   0.321E-02    0.777E-02
RMM:   6    -0.118049747243E+04    0.77353E-04   -0.61904E-05  1017   0.102E-02
   2 F= -.11877088E+04 E0= -.11877088E+04  d E =-.139808E-03  mag=     1.0004
       N       E                     dE             d eps       ncg     rms          rms(c)
DAV:   1    -0.118049917344E+04   -0.16237E-02   -0.28954E-01  1728   0.881E-01    0.250E-01
RMM:   2    -0.118049988480E+04   -0.71136E-03   -0.94684E-03  1584   0.132E-01    0.244E-01
RMM:   3    -0.118049972735E+04    0.15745E-03   -0.33760E-04  1124   0.220E-02    0.226E-01
RMM:   4    -0.118049953218E+04    0.19517E-03   -0.11368E-03  1581   0.399E-02    0.634E-02
RMM:   5    -0.118049956615E+04   -0.33969E-04   -0.10567E-04  1005   0.139E-02
   3 F= -.11877106E+04 E0= -.11877106E+04  d E =-.191845E-02  mag=     0.9999
       N       E                     dE             d eps       ncg     rms          rms(c)
DAV:   1    -0.118049918619E+04    0.34598E-03   -0.86054E-01  1584   0.144E+00    0.413E-01
RMM:   2    -0.118050059835E+04   -0.14122E-02   -0.22686E-02  1584   0.206E-01    0.387E-01
RMM:   3    -0.118050002046E+04    0.57789E-03   -0.84255E-04  1349   0.364E-02    0.342E-01
RMM:   4    -0.118049941774E+04    0.60272E-03   -0.43150E-03  1584   0.744E-02    0.961E-02
RMM:   5    -0.118049947446E+04   -0.56720E-04   -0.17987E-04  1074   0.185E-02
   4 F= -.11877109E+04 E0= -.11877109E+04  d E =-.301310E-03  mag=     1.0000
       N       E                     dE             d eps       ncg     rms          rms(c)
DAV:   1    -0.118050051236E+04   -0.10946E-02   -0.20433E-01  1728   0.701E-01    0.195E-01
RMM:   2    -0.118050076375E+04   -0.25139E-03   -0.51950E-03  1584   0.979E-02    0.182E-01
RMM:   3    -0.118050056346E+04    0.20029E-03   -0.18742E-04  1060   0.183E-02    0.157E-01
RMM:   4    -0.118050035868E+04    0.20478E-03   -0.15051E-03  1584   0.436E-02    0.477E-02
RMM:   5    -0.118050036898E+04   -0.10302E-04   -0.36481E-05   985   0.917E-03
   5 F= -.11877116E+04 E0= -.11877116E+04  d E =-.100318E-02  mag=     1.0000
       N       E                     dE             d eps       ncg     rms          rms(c)
DAV:   1    -0.118050064434E+04   -0.28566E-03   -0.24220E-01  1728   0.756E-01    0.136E-01
RMM:   2    -0.118050108938E+04   -0.44504E-03   -0.64641E-03  1584   0.110E-01    0.115E-01
RMM:   3    -0.118050095301E+04    0.13637E-03   -0.20102E-04  1091   0.194E-02    0.970E-02
RMM:   4    -0.118050089560E+04    0.57407E-04   -0.64887E-04  1474   0.292E-02
   6 F= -.11877122E+04 E0= -.11877122E+04  d E =-.632636E-03  mag=     1.0000
       N       E                     dE             d eps       ncg     rms          rms(c)
DAV:   1    -0.118050092499E+04    0.28023E-04   -0.19699E-03  1728   0.681E-02    0.265E-02
RMM:   2    -0.118050093480E+04   -0.98176E-05   -0.50265E-05   981   0.104E-02
   7 F= -.11877122E+04 E0= -.11877122E+04  d E =-.662476E-03  mag=     1.0000
