       N       E                     dE             d eps       ncg     rms          rms(c)
DAV:   1     0.492313440387E+04    0.49231E+04   -0.16893E+05  1800   0.904E+02
DAV:   2    -0.586838428360E+02   -0.49818E+04   -0.45277E+04  2520   0.210E+02
DAV:   3    -0.119458933485E+04   -0.11359E+04   -0.11301E+04  2124   0.111E+02
DAV:   4    -0.124099268840E+04   -0.46403E+02   -0.46192E+02  1980   0.303E+01
DAV:   5    -0.124238557219E+04   -0.13929E+01   -0.13906E+01  2412   0.505E+00    0.712E+01
RMM:   6    -0.122212746553E+04    0.20258E+02   -0.19781E+01  1601   0.473E+00    0.520E+01
RMM:   7    -0.119914032724E+04    0.22987E+02   -0.21323E+01  1587   0.547E+00    0.378E+01
RMM:   8    -0.117583180192E+04    0.23309E+02   -0.35783E+01  1584   0.701E+00    0.247E+01
RMM:   9    -0.117152325180E+04    0.43086E+01   -0.14972E+01  1584   0.465E+00    0.152E+01
RMM:  10    -0.117277093337E+04   -0.12477E+01   -0.94010E+00  1584   0.368E+00    0.796E+00
RMM:  11    -0.117216160334E+04    0.60933E+00   -0.75778E-01  1599   0.139E+00    0.388E+00
RMM:  12    -0.117186092849E+04    0.30067E+00   -0.74054E-01  1584   0.967E-01    0.172E+00
RMM:  13    -0.117182541672E+04    0.35512E-01   -0.11503E-01  1612   0.419E-01    0.580E-01
RMM:  14    -0.117182638057E+04   -0.96385E-03   -0.21491E-02  1644   0.197E-01    0.378E-01
RMM:  15    -0.117182652078E+04   -0.14021E-03   -0.22677E-03  1608   0.720E-02    0.280E-01
RMM:  16    -0.117182661428E+04   -0.93500E-04   -0.15966E-03  1585   0.494E-02    0.168E-01
RMM:  17    -0.117182686019E+04   -0.24591E-03   -0.39580E-04  1216   0.327E-02    0.706E-02
RMM:  18    -0.117182688111E+04   -0.20919E-04   -0.16179E-04  1095   0.179E-02
   1 F= -.11791381E+04 E0= -.11791370E+04  d E =-.117914E+04  mag=    -0.9758
       N       E                     dE             d eps       ncg     rms          rms(c)
DAV:   1    -0.117182606799E+04    0.79220E-03   -0.28543E-01  1728   0.867E-01    0.137E-01
RMM:   2    -0.117182675053E+04   -0.68254E-03   -0.89456E-03  1597   0.132E-01    0.136E-01
RMM:   3    -0.117182669968E+04    0.50851E-04   -0.53057E-04  1352   0.400E-02
   2 F= -.11791382E+04 E0= -.11791372E+04  d E =-.173774E-03  mag=    -0.9760
       N       E                     dE             d eps       ncg     rms          rms(c)
DAV:   1    -0.117182714220E+04   -0.39166E-03   -0.55931E-02  1620   0.383E-01    0.131E-01
RMM:   2    -0.117182727415E+04   -0.13195E-03   -0.14033E-03  1584   0.563E-02    0.907E-02
RMM:   3    -0.117182725286E+04    0.21293E-04   -0.14081E-04  1024   0.200E-02
   3 F= -.11791386E+04 E0= -.11791376E+04  d E =-.567973E-03  mag=    -0.9765
