       N       E                     dE             d eps       ncg     rms          rms(c)
DAV:   1     0.489112959429E+04    0.48911E+04   -0.17689E+05  1856   0.948E+02
DAV:   2    -0.301148657048E+02   -0.49212E+04   -0.45064E+04  2464   0.213E+02
DAV:   3    -0.119330294354E+04   -0.11632E+04   -0.11573E+04  2016   0.113E+02
DAV:   4    -0.124181945227E+04   -0.48517E+02   -0.48199E+02  1888   0.303E+01
DAV:   5    -0.124304954777E+04   -0.12301E+01   -0.12255E+01  2240   0.449E+00    0.755E+01
RMM:   6    -0.122309121490E+04    0.19958E+02   -0.16555E+01  1582   0.486E+00    0.524E+01
RMM:   7    -0.120465515530E+04    0.18436E+02   -0.20244E+01  1537   0.551E+00    0.402E+01
RMM:   8    -0.118784544082E+04    0.16810E+02   -0.16207E+01  1538   0.539E+00    0.300E+01
RMM:   9    -0.117538620466E+04    0.12459E+02   -0.21355E+01  1565   0.603E+00    0.205E+01
RMM:  10    -0.117511963651E+04    0.26657E+00   -0.18364E+01  1538   0.563E+00    0.865E+00
RMM:  11    -0.117541123915E+04   -0.29160E+00   -0.20041E+00  1599   0.236E+00    0.702E+00
RMM:  12    -0.117511559618E+04    0.29564E+00   -0.59909E-01  1558   0.113E+00    0.112E+01
RMM:  13    -0.117506792401E+04    0.47672E-01   -0.14473E+00  1596   0.141E+00    0.529E+00
RMM:  14    -0.117490830583E+04    0.15962E+00   -0.13878E-01  1592   0.594E-01    0.341E+00
RMM:  15    -0.117478899617E+04    0.11931E+00   -0.13164E-01  1558   0.444E-01    0.196E+00
RMM:  16    -0.117473361225E+04    0.55384E-01   -0.59641E-02  1553   0.293E-01    0.123E+00
RMM:  17    -0.117472974585E+04    0.38664E-02   -0.11682E-02  1704   0.135E-01    0.117E+00
RMM:  18    -0.117473431589E+04   -0.45700E-02   -0.25450E-03  1740   0.645E-02    0.132E+00
RMM:  19    -0.117471521243E+04    0.19103E-01   -0.18721E-02  1692   0.133E-01    0.564E-01
RMM:  20    -0.117471509597E+04    0.11646E-03   -0.22522E-03  1780   0.544E-02    0.571E-01
RMM:  21    -0.117471489881E+04    0.19716E-03   -0.43583E-04  2081   0.245E-02    0.575E-01
RMM:  22    -0.117471392913E+04    0.96968E-03   -0.60208E-04  1575   0.264E-02    0.513E-01
RMM:  23    -0.117471390511E+04    0.24019E-04   -0.17177E-03  1768   0.452E-02    0.570E-01
RMM:  24    -0.117471331399E+04    0.59113E-03   -0.26673E-04  1581   0.204E-02    0.442E-01
RMM:  25    -0.117471359249E+04   -0.27850E-03   -0.33869E-03  2200   0.621E-02    0.274E-01
RMM:  26    -0.117471308198E+04    0.51050E-03   -0.41454E-04  1752   0.243E-02    0.148E-01
RMM:  27    -0.117471297685E+04    0.10513E-03   -0.91912E-05  1559   0.124E-02    0.121E-01
RMM:  28    -0.117471276974E+04    0.20710E-03   -0.22721E-04  1694   0.163E-02    0.517E-02
RMM:  29    -0.117471274899E+04    0.20755E-04   -0.14116E-04  1670   0.135E-02    0.165E-02
RMM:  30    -0.117471274818E+04    0.80723E-06   -0.20042E-05  1625   0.640E-03    0.122E-02
RMM:  31    -0.117471274787E+04    0.31509E-06   -0.50200E-06  1306   0.322E-03
   1 F= -.11817646E+04 E0= -.11817644E+04  d E =-.118176E+04  mag=     0.0002
       N       E                     dE             d eps       ncg     rms          rms(c)
DAV:   1    -0.117471099736E+04    0.17508E-02   -0.33036E-01  1664   0.935E-01    0.194E-01
RMM:   2    -0.117471169460E+04   -0.69724E-03   -0.95758E-03  1550   0.151E-01    0.243E-01
RMM:   3    -0.117471188951E+04   -0.19491E-03   -0.19972E-03  1737   0.647E-02    0.223E-01
RMM:   4    -0.117471180944E+04    0.80069E-04   -0.35645E-04  1833   0.266E-02    0.230E-01
RMM:   5    -0.117471157342E+04    0.23603E-03   -0.10396E-03  1538   0.370E-02    0.204E-01
RMM:   6    -0.117471204392E+04   -0.47050E-03   -0.21768E-03  1545   0.544E-02    0.222E-01
RMM:   7    -0.117471161116E+04    0.43276E-03   -0.32488E-04  1541   0.252E-02    0.183E-01
RMM:   8    -0.117471157033E+04    0.40828E-04   -0.18069E-04  1555   0.157E-02    0.161E-01
RMM:   9    -0.117471159393E+04   -0.23597E-04   -0.21062E-05  1577   0.728E-03    0.153E-01
RMM:  10    -0.117471151275E+04    0.81184E-04   -0.56406E-05  1543   0.902E-03    0.126E-01
RMM:  11    -0.117471147230E+04    0.40448E-04   -0.41089E-05  1542   0.729E-03    0.105E-01
RMM:  12    -0.117471146303E+04    0.92714E-05   -0.85814E-06  1573   0.405E-03    0.943E-02
RMM:  13    -0.117471144795E+04    0.15079E-04   -0.95820E-06  1477   0.372E-03    0.808E-02
RMM:  14    -0.117471143493E+04    0.13020E-04   -0.11363E-05  1525   0.410E-03    0.620E-02
RMM:  15    -0.117471142688E+04    0.80490E-05   -0.83177E-06  1544   0.353E-03    0.479E-02
RMM:  16    -0.117471142499E+04    0.18866E-05   -0.24914E-06  1089   0.216E-03    0.431E-02
RMM:  17    -0.117471142318E+04    0.18105E-05   -0.13306E-06  1012   0.161E-03    0.382E-02
RMM:  18    -0.117471141782E+04    0.53607E-05   -0.10507E-05  1570   0.355E-03    0.192E-02
RMM:  19    -0.117471141714E+04    0.68139E-06   -0.16440E-06  1019   0.176E-03
   2 F= -.11817639E+04 E0= -.11817637E+04  d E =0.684663E-03  mag=    -0.0000
       N       E                     dE             d eps       ncg     rms          rms(c)
DAV:   1    -0.117471288538E+04   -0.14676E-02   -0.12413E-01  1632   0.571E-01    0.115E-01
RMM:   2    -0.117471307894E+04   -0.19356E-03   -0.30649E-03  1539   0.891E-02    0.141E-01
RMM:   3    -0.117471313484E+04   -0.55907E-04   -0.60137E-04  1692   0.368E-02    0.129E-01
RMM:   4    -0.117471309565E+04    0.39190E-04   -0.11065E-04  1764   0.153E-02    0.131E-01
RMM:   5    -0.117471298217E+04    0.11349E-03   -0.48635E-04  1538   0.260E-02    0.982E-02
RMM:   6    -0.117471305094E+04   -0.68777E-04   -0.40613E-04  1550   0.246E-02    0.938E-02
RMM:   7    -0.117471297192E+04    0.79023E-04   -0.73666E-05  1538   0.114E-02    0.753E-02
RMM:   8    -0.117471296929E+04    0.26299E-05   -0.40716E-05  1554   0.774E-03    0.602E-02
RMM:   9    -0.117471296268E+04    0.66075E-05   -0.88205E-06  1520   0.435E-03    0.541E-02
RMM:  10    -0.117471295153E+04    0.11156E-04   -0.18059E-05  1525   0.515E-03    0.410E-02
RMM:  11    -0.117471294932E+04    0.22014E-05   -0.50105E-06  1311   0.278E-03    0.353E-02
RMM:  12    -0.117471294875E+04    0.57599E-06   -0.10556E-06  1009   0.142E-03
   3 F= -.11817650E+04 E0= -.11817649E+04  d E =-.451389E-03  mag=     0.0000
       N       E                     dE             d eps       ncg     rms          rms(c)
DAV:   1    -0.117471250159E+04    0.44773E-03   -0.23281E-01  2048   0.954E-01    0.169E-01
RMM:   2    -0.117471326017E+04   -0.75858E-03   -0.10101E-02  1544   0.129E-01    0.127E-01
RMM:   3    -0.117471331345E+04   -0.53278E-04   -0.20959E-03  1567   0.501E-02    0.107E-01
RMM:   4    -0.117471319306E+04    0.12038E-03   -0.31688E-04  1606   0.248E-02    0.786E-02
RMM:   5    -0.117471313525E+04    0.57818E-04   -0.45850E-04  1538   0.273E-02    0.345E-02
RMM:   6    -0.117471315868E+04   -0.23436E-04   -0.10879E-04  1542   0.152E-02    0.230E-02
RMM:   7    -0.117471315284E+04    0.58438E-05   -0.17380E-05  1573   0.652E-03    0.184E-02
RMM:   8    -0.117471315349E+04   -0.65091E-06   -0.16500E-05  1530   0.485E-03    0.971E-03
RMM:   9    -0.117471315240E+04    0.10853E-05   -0.39856E-06  1259   0.283E-03    0.622E-03
RMM:  10    -0.117471315230E+04    0.10664E-06   -0.38994E-06  1229   0.250E-03
   4 F= -.11817655E+04 E0= -.11817653E+04  d E =-.456741E-03  mag=    -0.0000
       N       E                     dE             d eps       ncg     rms          rms(c)
DAV:   1    -0.117471320414E+04   -0.51737E-04   -0.85286E-03  1920   0.182E-01    0.314E-02
RMM:   2    -0.117471322853E+04   -0.24384E-04   -0.36697E-04  1546   0.250E-02    0.250E-02
RMM:   3    -0.117471322898E+04   -0.45769E-06   -0.75269E-05  1566   0.969E-03    0.202E-02
RMM:   4    -0.117471322480E+04    0.41800E-05   -0.11766E-05  1576   0.484E-03    0.148E-02
RMM:   5    -0.117471322345E+04    0.13513E-05   -0.16668E-05  1538   0.524E-03    0.610E-03
RMM:   6    -0.117471322415E+04   -0.69857E-06   -0.38986E-06  1246   0.288E-03
   5 F= -.11817655E+04 E0= -.11817653E+04  d E =-.480096E-03  mag=    -0.0000
       N       E                     dE             d eps       ncg     rms          rms(c)
DAV:   1    -0.117471320804E+04    0.15415E-04   -0.15849E-01  1728   0.680E-01    0.106E-01
RMM:   2    -0.117471350300E+04   -0.29496E-03   -0.41201E-03  1560   0.949E-02    0.114E-01
RMM:   3    -0.117471355262E+04   -0.49624E-04   -0.76170E-04  1610   0.378E-02    0.103E-01
RMM:   4    -0.117471352866E+04    0.23964E-04   -0.11554E-04  1688   0.160E-02    0.982E-02
RMM:   5    -0.117471348111E+04    0.47552E-04   -0.26981E-04  1552   0.204E-02    0.453E-02
RMM:   6    -0.117471351050E+04   -0.29387E-04   -0.11924E-04  1538   0.142E-02    0.322E-02
RMM:   7    -0.117471349924E+04    0.11259E-04   -0.14346E-05  1540   0.588E-03    0.260E-02
RMM:   8    -0.117471349846E+04    0.77717E-06   -0.17183E-05  1526   0.486E-03    0.143E-02
RMM:   9    -0.117471349689E+04    0.15667E-05   -0.47734E-06  1376   0.302E-03    0.976E-03
RMM:  10    -0.117471349689E+04    0.14261E-08   -0.57029E-06  1362   0.296E-03
   6 F= -.11817659E+04 E0= -.11817658E+04  d E =-.397773E-03  mag=    -0.0000
