       N       E                     dE             d eps       ncg     rms          rms(c)
DAV:   1     0.492846475313E+04    0.49285E+04   -0.17626E+05  1872   0.917E+02
DAV:   2    -0.366303905203E+02   -0.49651E+04   -0.45283E+04  2520   0.211E+02
DAV:   3    -0.119181766244E+04   -0.11552E+04   -0.11488E+04  2160   0.112E+02
DAV:   4    -0.123848246922E+04   -0.46665E+02   -0.46436E+02  2016   0.293E+01
DAV:   5    -0.123968087021E+04   -0.11984E+01   -0.11948E+01  2304   0.456E+00    0.102E+02
RMM:   6    -0.123988541742E+04   -0.20455E+00   -0.20670E+02  1818   0.173E+01    0.974E+01
RMM:   7    -0.122085631582E+04    0.19029E+02   -0.97567E+00  1595   0.462E+00    0.718E+01
RMM:   8    -0.118743538387E+04    0.33421E+02   -0.30749E+01  1604   0.769E+00    0.402E+01
RMM:   9    -0.119972926070E+04   -0.12294E+02   -0.45319E+01  1592   0.782E+00    0.895E+01
RMM:  10    -0.116120568157E+04    0.38524E+02   -0.27284E+01  1630   0.684E+00    0.204E+01
RMM:  11    -0.116519323941E+04   -0.39876E+01   -0.15873E+01  1607   0.472E+00    0.154E+01
RMM:  12    -0.116311334660E+04    0.20799E+01   -0.26468E+00  1625   0.231E+00    0.113E+01
RMM:  13    -0.116217751799E+04    0.93583E+00   -0.68468E+00  1618   0.251E+00    0.239E+01
RMM:  14    -0.116174334197E+04    0.43418E+00   -0.28822E-01  1675   0.651E-01    0.234E+01
RMM:  15    -0.116061892196E+04    0.11244E+01   -0.43775E-01  1648   0.688E-01    0.154E+01
RMM:  16    -0.116054609905E+04    0.72823E-01   -0.20437E-01  1584   0.559E-01    0.138E+01
RMM:  17    -0.116057237714E+04   -0.26278E-01   -0.93716E-03  1643   0.205E-01    0.143E+01
RMM:  18    -0.116046785793E+04    0.10452E+00   -0.88951E-01  1594   0.127E+00    0.820E+00
RMM:  19    -0.116055402862E+04   -0.86171E-01   -0.95849E-02  1613   0.363E-01    0.796E+00
RMM:  20    -0.116055569997E+04   -0.16713E-02   -0.22710E-02  1655   0.192E-01    0.709E+00
RMM:  21    -0.116054040242E+04    0.15298E-01   -0.20737E-02  1656   0.193E-01    0.683E+00
RMM:  22    -0.116054427578E+04   -0.38734E-02   -0.12848E-02  1612   0.145E-01    0.583E+00
RMM:  23    -0.116057287141E+04   -0.28596E-01   -0.23539E-02  1617   0.167E-01    0.490E+00
RMM:  24    -0.116057921154E+04   -0.63401E-02   -0.10377E-02  1633   0.118E-01    0.403E+00
RMM:  25    -0.116065816057E+04   -0.78949E-01   -0.17032E-02  1623   0.146E-01    0.828E+00
RMM:  26    -0.116067133721E+04   -0.13177E-01   -0.33149E-03  1520   0.129E-01    0.681E+00
RMM:  27    -0.116066695566E+04    0.43816E-02   -0.18078E-04  1091   0.214E-02    0.647E+00
RMM:  28    -0.116066965945E+04   -0.27038E-02   -0.50274E-05  1048   0.113E-02    0.672E+00
RMM:  29    -0.116067806787E+04   -0.84084E-02   -0.11250E-04  1064   0.124E-02    0.729E+00
RMM:  30    -0.116068873728E+04   -0.10669E-01   -0.29423E-04  1090   0.257E-02    0.793E+00
RMM:  31    -0.116068690054E+04    0.18367E-02   -0.30828E-04  1154   0.275E-02    0.814E+00
RMM:  32    -0.116065792990E+04    0.28971E-01   -0.40226E-03  1605   0.872E-02    0.852E+00
RMM:  33    -0.116058627365E+04    0.71656E-01   -0.93139E-03  1627   0.107E-01    0.546E+00
RMM:  34    -0.116059230558E+04   -0.60319E-02   -0.16346E-03  1551   0.722E-02    0.662E+00
RMM:  35    -0.116055265568E+04    0.39650E-01   -0.26687E-03  1573   0.564E-02    0.375E+00
RMM:  36    -0.116054081039E+04    0.11845E-01   -0.89118E-04  1246   0.549E-02    0.397E+00
RMM:  37    -0.116047700872E+04    0.63802E-01   -0.15119E-02  1649   0.133E-01    0.277E+00
RMM:  38    -0.116045782590E+04    0.19183E-01   -0.49882E-03  1598   0.810E-02    0.272E+00
RMM:  39    -0.116045525904E+04    0.25669E-02   -0.47580E-04  1193   0.290E-02    0.272E+00
RMM:  40    -0.116044974910E+04    0.55099E-02   -0.57777E-04  1292   0.297E-02    0.253E+00
RMM:  41    -0.116044686015E+04    0.28889E-02   -0.10352E-03  1419   0.420E-02    0.224E+00
RMM:  42    -0.116043689406E+04    0.99661E-02   -0.25601E-03  1615   0.631E-02    0.201E+00
RMM:  43    -0.116042541305E+04    0.11481E-01   -0.25156E-03  1623   0.557E-02    0.181E+00
RMM:  44    -0.116041683124E+04    0.85818E-02   -0.16462E-03  1549   0.433E-02    0.155E+00
RMM:  45    -0.116040659163E+04    0.10240E-01   -0.32958E-03  1621   0.660E-02    0.122E+00
RMM:  46    -0.116039326620E+04    0.13325E-01   -0.73436E-03  1645   0.892E-02    0.888E-01
RMM:  47    -0.116038987115E+04    0.33950E-02   -0.15917E-03  1451   0.449E-02    0.756E-01
RMM:  48    -0.116038729802E+04    0.25731E-02   -0.80801E-04  1294   0.307E-02    0.670E-01
RMM:  49    -0.116038371203E+04    0.35860E-02   -0.14846E-03  1468   0.405E-02    0.577E-01
RMM:  50    -0.116037994752E+04    0.37645E-02   -0.27974E-03  1561   0.526E-02    0.579E-01
RMM:  51    -0.116037821639E+04    0.17311E-02   -0.16287E-03  1409   0.410E-02    0.598E-01
RMM:  52    -0.116037814359E+04    0.72791E-04   -0.13532E-04  1074   0.155E-02
   1 F= -.11673342E+04 E0= -.11673201E+04  d E =-.116733E+04  mag=     0.0029
       N       E                     dE             d eps       ncg     rms          rms(c)
DAV:   1    -0.116037643879E+04    0.17776E-02   -0.50544E-01  1692   0.162E+00    0.697E-01
RMM:   2    -0.116037740393E+04   -0.96514E-03   -0.41658E-02  1668   0.256E-01    0.885E-01
RMM:   3    -0.116037637880E+04    0.10251E-02   -0.19743E-03  1627   0.659E-02    0.123E+00
RMM:   4    -0.116037277748E+04    0.36013E-02   -0.25113E-03  1592   0.612E-02    0.407E-01
RMM:   5    -0.116037431518E+04   -0.15377E-02   -0.79444E-04  1488   0.410E-02    0.332E-01
RMM:   6    -0.116037380660E+04    0.50859E-03   -0.53652E-03  1584   0.938E-02    0.117E-01
RMM:   7    -0.116037376464E+04    0.41956E-04   -0.36919E-04  1121   0.260E-02
   2 F= -.11673301E+04 E0= -.11673160E+04  d E =0.409922E-02  mag=     0.0000
       N       E                     dE             d eps       ncg     rms          rms(c)
DAV:   1    -0.116037694373E+04   -0.31371E-02   -0.32574E-01  1692   0.130E+00    0.235E-01
RMM:   2    -0.116037845829E+04   -0.15146E-02   -0.22465E-02  1670   0.189E-01    0.197E-01
RMM:   3    -0.116037757447E+04    0.88382E-03   -0.92857E-04  1370   0.445E-02    0.174E-01
RMM:   4    -0.116037693707E+04    0.63740E-03   -0.81068E-04  1562   0.337E-02    0.464E-01
RMM:   5    -0.116037610859E+04    0.82848E-03   -0.75066E-04  1566   0.349E-02    0.983E-02
RMM:   6    -0.116037641262E+04   -0.30403E-03   -0.24055E-04  1129   0.224E-02    0.501E-02
RMM:   7    -0.116037648338E+04   -0.70756E-04   -0.10592E-04  1009   0.159E-02
   3 F= -.11673326E+04 E0= -.11673185E+04  d E =0.160776E-02  mag=     0.0000
