       N       E                     dE             d eps       ncg     rms          rms(c)
DAV:   1     0.450250338547E+04    0.45025E+04   -0.17836E+05  2016   0.916E+02
DAV:   2    -0.593366733152E+02   -0.45618E+04   -0.41425E+04  2520   0.207E+02
DAV:   3    -0.119286680318E+04   -0.11335E+04   -0.11264E+04  2232   0.111E+02
DAV:   4    -0.124816583942E+04   -0.55299E+02   -0.54893E+02  2196   0.319E+01
DAV:   5    -0.125024422823E+04   -0.20784E+01   -0.20741E+01  2484   0.592E+00    0.740E+01
RMM:   6    -0.123111352080E+04    0.19131E+02   -0.99973E+00  2112   0.494E+00    0.567E+01
RMM:   7    -0.119769300261E+04    0.33421E+02   -0.63635E+01  2108   0.131E+01    0.326E+01
RMM:   8    -0.118538120874E+04    0.12312E+02   -0.18780E+01  2088   0.804E+00    0.260E+01
RMM:   9    -0.117921978990E+04    0.61614E+01   -0.17560E+01  2085   0.658E+00    0.192E+01
RMM:  10    -0.117927386397E+04   -0.54074E-01   -0.60419E+00  2103   0.456E+00    0.129E+01
RMM:  11    -0.118024570765E+04   -0.97184E+00   -0.19098E+00  2123   0.283E+00    0.902E+00
RMM:  12    -0.118005691201E+04    0.18880E+00   -0.42844E-01  2101   0.150E+00    0.485E+00
RMM:  13    -0.117958264857E+04    0.47426E+00   -0.90853E-01  2050   0.122E+00    0.220E+00
RMM:  14    -0.117952471524E+04    0.57933E-01   -0.33311E-01  2055   0.187E+00    0.103E+00
RMM:  15    -0.117952444341E+04    0.27183E-03   -0.56155E-02  2090   0.438E-01    0.580E-01
RMM:  16    -0.117952341569E+04    0.10277E-02   -0.12496E-02  2081   0.180E-01    0.362E-01
RMM:  17    -0.117952262613E+04    0.78956E-03   -0.49187E-03  1908   0.131E-01    0.218E-01
RMM:  18    -0.117952286878E+04   -0.24266E-03   -0.80288E-04  1233   0.107E-01    0.143E-01
RMM:  19    -0.117952306565E+04   -0.19687E-03   -0.26391E-04  1176   0.112E-01    0.160E-01
RMM:  20    -0.117952304340E+04    0.22252E-04   -0.14503E-04  1165   0.143E-01
   1 F= -.11868581E+04 E0= -.11868575E+04  d E =-.118686E+04  mag=     0.0089
       N       E                     dE             d eps       ncg     rms          rms(c)
DAV:   1    -0.117951403850E+04    0.90272E-02   -0.12035E+00  1836   0.192E+00    0.721E-01
RMM:   2    -0.117951824997E+04   -0.42115E-02   -0.52431E-02  2204   0.289E-01    0.713E-01
RMM:   3    -0.117951819266E+04    0.57308E-04   -0.48086E-03  1316   0.551E-01    0.691E-01
RMM:   4    -0.117951777860E+04    0.41406E-03   -0.10504E-03  1358   0.133E-01    0.598E-01
RMM:   5    -0.117951716343E+04    0.61518E-03   -0.36989E-03  1796   0.183E-01    0.256E-01
RMM:   6    -0.117951730403E+04   -0.14061E-03   -0.11948E-03  1441   0.144E-01    0.123E-01
RMM:   7    -0.117951727316E+04    0.30872E-04   -0.83098E-04  1320   0.150E-01
   2 F= -.11868533E+04 E0= -.11868527E+04  d E =0.478857E-02  mag=     0.0119
       N       E                     dE             d eps       ncg     rms          rms(c)
DAV:   1    -0.117952292213E+04   -0.56181E-02   -0.61479E-01  2016   0.140E+00    0.524E-01
RMM:   2    -0.117952444439E+04   -0.15223E-02   -0.22099E-02  2115   0.200E-01    0.512E-01
RMM:   3    -0.117952460401E+04   -0.15962E-03   -0.46886E-03  1321   0.462E-01    0.499E-01
RMM:   4    -0.117952396662E+04    0.63739E-03   -0.71607E-04  1237   0.109E-01    0.448E-01
RMM:   5    -0.117952365802E+04    0.30860E-03   -0.12061E-03  1366   0.152E-01    0.378E-01
RMM:   6    -0.117952375264E+04   -0.94627E-04   -0.15539E-03  1479   0.173E-01    0.322E-01
RMM:   7    -0.117952374884E+04    0.38035E-05   -0.68423E-04  1319   0.171E-01
   3 F= -.11868591E+04 E0= -.11868585E+04  d E =-.987412E-03  mag=     0.0124
