       N       E                     dE             d eps       ncg     rms          rms(c)
DAV:   1     0.461920347409E+04    0.46192E+04   -0.17482E+05  1908   0.913E+02
DAV:   2    -0.104568055041E+03   -0.47238E+04   -0.43157E+04  2520   0.207E+02
DAV:   3    -0.118328648691E+04   -0.10787E+04   -0.10739E+04  2088   0.107E+02
DAV:   4    -0.122690208527E+04   -0.43616E+02   -0.43422E+02  2016   0.284E+01
DAV:   5    -0.122798609815E+04   -0.10840E+01   -0.10812E+01  2304   0.416E+00    0.603E+01
RMM:   6    -0.121569466075E+04    0.12291E+02   -0.71877E+00  1584   0.309E+00    0.491E+01
RMM:   7    -0.117626270166E+04    0.39432E+02   -0.60154E+01  1584   0.883E+00    0.305E+01
RMM:   8    -0.116727743194E+04    0.89853E+01   -0.19535E+01  1584   0.509E+00    0.201E+01
RMM:   9    -0.116653863775E+04    0.73879E+00   -0.28163E+01  1584   0.601E+00    0.114E+01
RMM:  10    -0.116538103278E+04    0.11576E+01   -0.17584E+00  1621   0.145E+00    0.718E+00
RMM:  11    -0.116483766338E+04    0.54337E+00   -0.26039E+00  1584   0.140E+00    0.550E+00
RMM:  12    -0.116456605785E+04    0.27161E+00   -0.64951E-01  1584   0.717E-01    0.187E+00
RMM:  13    -0.116453774550E+04    0.28312E-01   -0.20134E-01  1584   0.506E-01    0.728E-01
RMM:  14    -0.116453275414E+04    0.49914E-02   -0.22875E-02  1620   0.164E-01    0.347E-01
RMM:  15    -0.116453266001E+04    0.94128E-04   -0.57976E-03  1586   0.689E-02    0.343E-01
RMM:  16    -0.116453230292E+04    0.35709E-03   -0.22657E-03  1583   0.455E-02    0.178E-01
RMM:  17    -0.116453254551E+04   -0.24260E-03   -0.83799E-04  1314   0.315E-02    0.998E-02
RMM:  18    -0.116453265239E+04   -0.10687E-03   -0.49548E-04  1221   0.250E-02    0.660E-02
RMM:  19    -0.116453267563E+04   -0.23243E-04   -0.14319E-04  1041   0.123E-02
   1 F= -.11716695E+04 E0= -.11716695E+04  d E =-.117167E+04  mag=     0.9970
       N       E                     dE             d eps       ncg     rms          rms(c)
DAV:   1    -0.116453341376E+04   -0.76137E-03   -0.24233E-01  1692   0.781E-01    0.194E-01
RMM:   2    -0.116453349705E+04   -0.83290E-04   -0.69504E-03  1584   0.115E-01    0.159E-01
RMM:   3    -0.116453300889E+04    0.48815E-03   -0.51625E-04  1343   0.287E-02    0.123E-01
RMM:   4    -0.116453257822E+04    0.43068E-03   -0.59693E-04  1548   0.280E-02    0.780E-02
RMM:   5    -0.116453242805E+04    0.15017E-03   -0.75954E-04  1580   0.307E-02    0.338E-02
RMM:   6    -0.116453243304E+04   -0.49877E-05   -0.61817E-05  1004   0.104E-02
   2 F= -.11716696E+04 E0= -.11716696E+04  d E =-.189542E-04  mag=     0.9998
       N       E                     dE             d eps       ncg     rms          rms(c)
DAV:   1    -0.116453346642E+04   -0.10384E-02   -0.65326E-02  1584   0.404E-01    0.956E-02
RMM:   2    -0.116453343302E+04    0.33398E-04   -0.13616E-03  1584   0.540E-02    0.797E-02
RMM:   3    -0.116453328063E+04    0.15239E-03   -0.11320E-04  1018   0.139E-02    0.604E-02
RMM:   4    -0.116453316291E+04    0.11772E-03   -0.15363E-04  1049   0.152E-02    0.371E-02
RMM:   5    -0.116453312630E+04    0.36615E-04   -0.22523E-04  1135   0.177E-02
   3 F= -.11716701E+04 E0= -.11716701E+04  d E =-.573984E-03  mag=     1.0000
