       N       E                     dE             d eps       ncg     rms          rms(c)
DAV:   1     0.488115495486E+04    0.48812E+04   -0.17029E+05  1836   0.908E+02
DAV:   2    -0.648924062774E+02   -0.49460E+04   -0.45105E+04  2520   0.207E+02
DAV:   3    -0.119275109078E+04   -0.11279E+04   -0.11221E+04  2088   0.109E+02
DAV:   4    -0.123839780125E+04   -0.45647E+02   -0.45425E+02  1980   0.292E+01
DAV:   5    -0.123963321182E+04   -0.12354E+01   -0.12335E+01  2412   0.451E+00    0.661E+01
RMM:   6    -0.122304261512E+04    0.16591E+02   -0.25901E+01  1584   0.514E+00    0.543E+01
RMM:   7    -0.120887094717E+04    0.14172E+02   -0.71262E+00  1584   0.297E+00    0.422E+01
RMM:   8    -0.118506509940E+04    0.23806E+02   -0.24145E+01  1584   0.564E+00    0.287E+01
RMM:   9    -0.117120494974E+04    0.13860E+02   -0.24699E+01  1584   0.565E+00    0.193E+01
RMM:  10    -0.117143728344E+04   -0.23233E+00   -0.18131E+01  1584   0.481E+00    0.103E+01
RMM:  11    -0.117124440982E+04    0.19287E+00   -0.94529E-01  1622   0.124E+00    0.687E+00
RMM:  12    -0.117105765848E+04    0.18675E+00   -0.12727E-01  1584   0.380E-01    0.540E+00
RMM:  13    -0.117062294773E+04    0.43471E+00   -0.15317E+00  1584   0.138E+00    0.144E+00
RMM:  14    -0.117058943527E+04    0.33512E-01   -0.86308E-02  1594   0.336E-01    0.750E-01
RMM:  15    -0.117058633887E+04    0.30964E-02   -0.15304E-02  1606   0.138E-01    0.400E-01
RMM:  16    -0.117058673286E+04   -0.39400E-03   -0.46844E-03  1584   0.821E-02    0.234E-01
RMM:  17    -0.117058596671E+04    0.76616E-03   -0.14313E-03  1538   0.420E-02    0.136E-01
RMM:  18    -0.117058595585E+04    0.10858E-04   -0.72881E-04  1238   0.270E-02
   1 F= -.11777791E+04 E0= -.11777791E+04  d E =-.117778E+04  mag=     1.0024
       N       E                     dE             d eps       ncg     rms          rms(c)
DAV:   1    -0.117058625459E+04   -0.28789E-03   -0.96941E-01  1692   0.138E+00    0.313E-01
RMM:   2    -0.117058774494E+04   -0.14904E-02   -0.24333E-02  1584   0.201E-01    0.289E-01
RMM:   3    -0.117058742330E+04    0.32164E-03   -0.12017E-03  1539   0.420E-02    0.270E-01
RMM:   4    -0.117058641276E+04    0.10105E-02   -0.35282E-03  1584   0.637E-02    0.110E-01
RMM:   5    -0.117058645470E+04   -0.41944E-04   -0.70662E-04  1583   0.301E-02
   2 F= -.11777802E+04 E0= -.11777802E+04  d E =-.116451E-02  mag=     0.9999
       N       E                     dE             d eps       ncg     rms          rms(c)
DAV:   1    -0.117058772391E+04   -0.13112E-02   -0.16404E-01  1764   0.570E-01    0.121E-01
RMM:   2    -0.117058786682E+04   -0.14291E-03   -0.34743E-03  1584   0.756E-02    0.106E-01
RMM:   3    -0.117058776663E+04    0.10019E-03   -0.15078E-04  1060   0.158E-02    0.951E-02
RMM:   4    -0.117058756566E+04    0.20097E-03   -0.87689E-04  1552   0.317E-02    0.360E-02
RMM:   5    -0.117058756939E+04   -0.37278E-05   -0.55539E-05  1007   0.103E-02
   3 F= -.11777811E+04 E0= -.11777811E+04  d E =-.200183E-02  mag=     0.9999
       N       E                     dE             d eps       ncg     rms          rms(c)
DAV:   1    -0.117058846924E+04   -0.90358E-03   -0.75185E-01  1728   0.111E+00    0.238E-01
RMM:   2    -0.117058943436E+04   -0.96511E-03   -0.13432E-02  1584   0.141E-01    0.210E-01
RMM:   3    -0.117058918454E+04    0.24982E-03   -0.50887E-04  1217   0.283E-02    0.180E-01
RMM:   4    -0.117058887330E+04    0.31123E-03   -0.21498E-03  1584   0.503E-02    0.588E-02
RMM:   5    -0.117058886802E+04    0.52834E-05   -0.50804E-05  1013   0.105E-02
   4 F= -.11777829E+04 E0= -.11777829E+04  d E =-.180917E-02  mag=     0.9999
       N       E                     dE             d eps       ncg     rms          rms(c)
DAV:   1    -0.117058889771E+04   -0.24411E-04   -0.76254E-04  1728   0.372E-02    0.231E-02
RMM:   2    -0.117058889603E+04    0.16823E-05   -0.27468E-05   946   0.760E-03
   5 F= -.11777829E+04 E0= -.11777829E+04  d E =-.182190E-02  mag=     0.9999
       N       E                     dE             d eps       ncg     rms          rms(c)
DAV:   1    -0.117058922039E+04   -0.32268E-03   -0.47869E-01  1728   0.898E-01    0.160E-01
RMM:   2    -0.117058988817E+04   -0.66778E-03   -0.85881E-03  1584   0.116E-01    0.138E-01
RMM:   3    -0.117058980710E+04    0.81075E-04   -0.30636E-04  1158   0.231E-02
   6 F= -.11777843E+04 E0= -.11777843E+04  d E =-.139962E-02  mag=     0.9999
       N       E                     dE             d eps       ncg     rms          rms(c)
DAV:   1    -0.117058916899E+04    0.71918E-03   -0.19222E-01  1728   0.567E-01    0.133E-01
RMM:   2    -0.117058937338E+04   -0.20439E-03   -0.30765E-03  1574   0.662E-02    0.120E-01
RMM:   3    -0.117058934397E+04    0.29409E-04   -0.11269E-04  1062   0.142E-02
   7 F= -.11777841E+04 E0= -.11777841E+04  d E =-.125754E-02  mag=     0.9999
       N       E                     dE             d eps       ncg     rms          rms(c)
DAV:   1    -0.117058974750E+04   -0.37412E-03   -0.29909E-01  1728   0.880E-01    0.153E-01
RMM:   2    -0.117059027119E+04   -0.52368E-03   -0.76752E-03  1591   0.132E-01    0.140E-01
RMM:   3    -0.117059014965E+04    0.12154E-03   -0.32694E-04  1198   0.248E-02    0.127E-01
RMM:   4    -0.117058987531E+04    0.27434E-03   -0.12390E-03  1554   0.381E-02    0.567E-02
RMM:   5    -0.117058986463E+04    0.10681E-04   -0.89806E-05  1027   0.131E-02
   8 F= -.11777846E+04 E0= -.11777846E+04  d E =-.499653E-03  mag=     0.9999
       N       E                     dE             d eps       ncg     rms          rms(c)
DAV:   1    -0.117059060567E+04   -0.73036E-03   -0.60061E-02  1728   0.394E-01    0.669E-02
RMM:   2    -0.117059069385E+04   -0.88178E-04   -0.14771E-03  1586   0.578E-02    0.634E-02
RMM:   3    -0.117059066317E+04    0.30678E-04   -0.57627E-05   958   0.113E-02
   9 F= -.11777854E+04 E0= -.11777854E+04  d E =-.130632E-02  mag=     0.9999
