       N       E                     dE             d eps       ncg     rms          rms(c)
DAV:   1     0.501899044972E+04    0.50190E+04   -0.17203E+05  1800   0.917E+02
DAV:   2    -0.188867006142E+02   -0.50379E+04   -0.46108E+04  2520   0.213E+02
DAV:   3    -0.117301318269E+04   -0.11541E+04   -0.11487E+04  2088   0.112E+02
DAV:   4    -0.122095552668E+04   -0.47942E+02   -0.47710E+02  2016   0.299E+01
DAV:   5    -0.122217282241E+04   -0.12173E+01   -0.12146E+01  2340   0.436E+00    0.606E+01
RMM:   6    -0.121067027914E+04    0.11503E+02   -0.73929E+00  1584   0.308E+00    0.504E+01
RMM:   7    -0.119348598429E+04    0.17184E+02   -0.12543E+01  1584   0.412E+00    0.404E+01
RMM:   8    -0.116752790764E+04    0.25958E+02   -0.32176E+01  1584   0.654E+00    0.271E+01
RMM:   9    -0.116073121905E+04    0.67967E+01   -0.21242E+01  1584   0.526E+00    0.163E+01
RMM:  10    -0.116147679801E+04   -0.74558E+00   -0.11459E+01  1584   0.391E+00    0.954E+00
RMM:  11    -0.116093571442E+04    0.54108E+00   -0.67809E-01  1621   0.946E-01    0.646E+00
RMM:  12    -0.116060873974E+04    0.32697E+00   -0.16092E+00  1584   0.116E+00    0.320E+00
RMM:  13    -0.116050352508E+04    0.10521E+00   -0.22384E-01  1584   0.501E-01    0.143E+00
RMM:  14    -0.116047485097E+04    0.28674E-01   -0.11731E-01  1584   0.390E-01    0.796E-01
RMM:  15    -0.116047278921E+04    0.20618E-02   -0.10250E-02  1617   0.113E-01    0.588E-01
RMM:  16    -0.116047238461E+04    0.40460E-03   -0.66266E-03  1583   0.755E-02    0.536E-01
RMM:  17    -0.116047275051E+04   -0.36590E-03   -0.60741E-03  1584   0.857E-02    0.494E-01
RMM:  18    -0.116047234026E+04    0.41025E-03   -0.26191E-03  1548   0.473E-02    0.450E-01
RMM:  19    -0.116047010027E+04    0.22400E-02   -0.15491E-02  1584   0.958E-02    0.439E-01
RMM:  20    -0.116046920417E+04    0.89610E-03   -0.96929E-03  1547   0.685E-02    0.237E-01
RMM:  21    -0.116046909822E+04    0.10595E-03   -0.41530E-03  1190   0.369E-02    0.184E-01
RMM:  22    -0.116047057108E+04   -0.14729E-02   -0.24578E-03  1502   0.466E-02    0.918E-02
RMM:  23    -0.116047089099E+04   -0.31991E-03   -0.86414E-04  1127   0.252E-02    0.596E-02
RMM:  24    -0.116047131880E+04   -0.42780E-03   -0.26502E-04  1028   0.138E-02    0.732E-02
RMM:  25    -0.116047150044E+04   -0.18164E-03   -0.69872E-05   952   0.780E-03    0.718E-02
RMM:  26    -0.116047152835E+04   -0.27912E-04   -0.33207E-04   915   0.115E-02
   1 F= -.11675944E+04 E0= -.11675944E+04  d E =-.116759E+04  mag=     1.0001
       N       E                     dE             d eps       ncg     rms          rms(c)
DAV:   1    -0.116047070934E+04    0.79110E-03   -0.37532E-01  1656   0.831E-01    0.196E-01
RMM:   2    -0.116047221031E+04   -0.15010E-02   -0.90721E-03  1584   0.121E-01    0.162E-01
RMM:   3    -0.116047223980E+04   -0.29490E-04   -0.48539E-04  1240   0.285E-02
   2 F= -.11675953E+04 E0= -.11675953E+04  d E =-.856177E-03  mag=     1.0000
       N       E                     dE             d eps       ncg     rms          rms(c)
DAV:   1    -0.116047225638E+04   -0.46069E-04   -0.12861E-02  1728   0.158E-01    0.948E-02
RMM:   2    -0.116047236012E+04   -0.10375E-03   -0.42181E-04  1168   0.291E-02    0.925E-02
RMM:   3    -0.116047237674E+04   -0.16620E-04   -0.37030E-05   995   0.912E-03
   3 F= -.11675954E+04 E0= -.11675954E+04  d E =-.968217E-03  mag=     1.0000
