       N       E                     dE             d eps       ncg     rms          rms(c)
DAV:   1     0.506071743580E+04    0.50607E+04   -0.17290E+05  1800   0.923E+02
DAV:   2    -0.180692084431E+02   -0.50788E+04   -0.46471E+04  2520   0.214E+02
DAV:   3    -0.119848701499E+04   -0.11804E+04   -0.11737E+04  2088   0.114E+02
DAV:   4    -0.124841762509E+04   -0.49931E+02   -0.49630E+02  2016   0.314E+01
DAV:   5    -0.124976405871E+04   -0.13464E+01   -0.13419E+01  2340   0.469E+00    0.695E+01
RMM:   6    -0.123145436561E+04    0.18310E+02   -0.27936E+01  1599   0.586E+00    0.570E+01
RMM:   7    -0.121545998876E+04    0.15994E+02   -0.91712E+00  1585   0.369E+00    0.437E+01
RMM:   8    -0.118988183974E+04    0.25578E+02   -0.32971E+01  1584   0.679E+00    0.282E+01
RMM:   9    -0.118002848961E+04    0.98534E+01   -0.19198E+01  1585   0.546E+00    0.196E+01
RMM:  10    -0.118117956602E+04   -0.11511E+01   -0.16685E+01  1585   0.496E+00    0.905E+00
RMM:  11    -0.118114342423E+04    0.36142E-01   -0.14661E+00  1616   0.216E+00    0.663E+00
RMM:  12    -0.118058538129E+04    0.55804E+00   -0.72676E-01  1591   0.928E-01    0.521E+00
RMM:  13    -0.118015899043E+04    0.42639E+00   -0.12976E+00  1584   0.134E+00    0.161E+00
RMM:  14    -0.118015120011E+04    0.77903E-02   -0.59559E-02  1630   0.465E-01    0.138E+00
RMM:  15    -0.118014929756E+04    0.19026E-02   -0.15727E-02  1631   0.125E-01    0.119E+00
RMM:  16    -0.118014892519E+04    0.37237E-03   -0.56562E-03  1589   0.104E-01    0.877E-01
RMM:  17    -0.118014889181E+04    0.33378E-04   -0.30967E-03  1663   0.738E-02    0.567E-01
RMM:  18    -0.118014894115E+04   -0.49341E-04   -0.94834E-04  1372   0.419E-02
   1 F= -.11875350E+04 E0= -.11875350E+04  d E =-.118754E+04  mag=     0.0082
       N       E                     dE             d eps       ncg     rms          rms(c)
DAV:   1    -0.118014794946E+04    0.94235E-03   -0.34635E-01  1692   0.930E-01    0.251E-01
RMM:   2    -0.118014878164E+04   -0.83218E-03   -0.11245E-02  1599   0.155E-01    0.237E-01
RMM:   3    -0.118014860017E+04    0.18146E-03   -0.79475E-04  1481   0.516E-02    0.197E-01
RMM:   4    -0.118014833722E+04    0.26295E-03   -0.40000E-04  1373   0.251E-02    0.144E-01
RMM:   5    -0.118014824383E+04    0.93390E-04   -0.13032E-03  1584   0.420E-02    0.522E-02
RMM:   6    -0.118014823210E+04    0.11739E-04   -0.65282E-05  1015   0.174E-02
   2 F= -.11875346E+04 E0= -.11875346E+04  d E =0.432180E-03  mag=     0.0004
       N       E                     dE             d eps       ncg     rms          rms(c)
DAV:   1    -0.118014958742E+04   -0.13436E-02   -0.11811E-01  1656   0.540E-01    0.110E-01
RMM:   2    -0.118014971126E+04   -0.12384E-03   -0.26970E-03  1584   0.824E-02    0.106E-01
RMM:   3    -0.118014964508E+04    0.66177E-04   -0.14410E-04  1065   0.233E-02
   3 F= -.11875358E+04 E0= -.11875358E+04  d E =-.817025E-03  mag=     0.0002
