       N       E                     dE             d eps       ncg     rms          rms(c)
DAV:   1     0.510193573032E+04    0.51019E+04   -0.17079E+05  1872   0.912E+02
DAV:   2     0.704738758902E+02   -0.50315E+04   -0.45804E+04  2592   0.211E+02
DAV:   3    -0.118059723464E+04   -0.12511E+04   -0.12434E+04  2268   0.117E+02
DAV:   4    -0.123749227323E+04   -0.56895E+02   -0.56539E+02  2376   0.326E+01
DAV:   5    -0.123917598762E+04   -0.16837E+01   -0.16764E+01  2268   0.528E+00    0.728E+01
RMM:   6    -0.121993994475E+04    0.19236E+02   -0.11665E+01  2128   0.555E+00    0.572E+01
RMM:   7    -0.119469874008E+04    0.25241E+02   -0.23549E+01  2057   0.763E+00    0.480E+01
RMM:   8    -0.117739304442E+04    0.17306E+02   -0.20503E+01  2036   0.109E+01    0.420E+01
RMM:   9    -0.117436258126E+04    0.30305E+01   -0.67800E+00  2083   0.642E+00    0.261E+01
RMM:  10    -0.117117094877E+04    0.31916E+01   -0.71327E+00  2096   0.331E+00    0.191E+01
RMM:  11    -0.117176452802E+04   -0.59358E+00   -0.13009E+01  2088   0.507E+00    0.102E+01
RMM:  12    -0.117141545836E+04    0.34907E+00   -0.58751E-01  1862   0.329E+00    0.714E+00
RMM:  13    -0.117099910295E+04    0.41636E+00   -0.10796E+00  2087   0.128E+00    0.400E+00
RMM:  14    -0.117084766371E+04    0.15144E+00   -0.23110E-01  2074   0.140E+00    0.357E+00
RMM:  15    -0.117084218410E+04    0.54796E-02   -0.89612E-02  2111   0.444E-01    0.275E+00
RMM:  16    -0.117083694298E+04    0.52411E-02   -0.98851E-03  1899   0.297E-01    0.217E+00
RMM:  17    -0.117083947998E+04   -0.25370E-02   -0.16635E-02  2069   0.219E-01    0.142E+00
RMM:  18    -0.117084540358E+04   -0.59236E-02   -0.40660E-03  1352   0.176E-01    0.117E+00
RMM:  19    -0.117084611128E+04   -0.70770E-03   -0.12845E-03  1231   0.146E-01    0.121E+00
RMM:  20    -0.117084351079E+04    0.26005E-02   -0.69345E-04  1348   0.177E-01    0.118E+00
RMM:  21    -0.117083690020E+04    0.66106E-02   -0.53517E-03  1659   0.202E-01    0.115E+00
RMM:  22    -0.117083536373E+04    0.15365E-02   -0.33067E-03  1537   0.178E-01    0.795E-01
RMM:  23    -0.117083465653E+04    0.70720E-03   -0.14765E-03  1390   0.127E-01    0.620E-01
RMM:  24    -0.117083417246E+04    0.48408E-03   -0.99000E-04  1355   0.152E-01    0.536E-01
RMM:  25    -0.117083408395E+04    0.88504E-04   -0.51558E-04  1342   0.160E-01
   1 F= -.11780879E+04 E0= -.11780879E+04  d E =-.117809E+04  mag=    -0.0171
       N       E                     dE             d eps       ncg     rms          rms(c)
DAV:   1    -0.117083049493E+04    0.36775E-02   -0.64184E-01  1836   0.132E+00    0.347E-01
RMM:   2    -0.117083156197E+04   -0.10670E-02   -0.13791E-02  2023   0.195E-01    0.325E-01
RMM:   3    -0.117083180909E+04   -0.24711E-03   -0.46489E-03  1235   0.464E-01    0.313E-01
RMM:   4    -0.117083172713E+04    0.81958E-04   -0.34011E-04  1149   0.111E-01
   2 F= -.11780861E+04 E0= -.11780861E+04  d E =0.175611E-02  mag=     0.0012
       N       E                     dE             d eps       ncg     rms          rms(c)
DAV:   1    -0.117083395764E+04   -0.21486E-02   -0.30929E-01  1764   0.922E-01    0.251E-01
RMM:   2    -0.117083473811E+04   -0.78047E-03   -0.56948E-03  1929   0.136E-01    0.211E-01
RMM:   3    -0.117083517722E+04   -0.43910E-03   -0.26804E-03  1286   0.421E-01    0.285E-01
RMM:   4    -0.117083491641E+04    0.26081E-03   -0.14014E-04  1095   0.721E-02    0.256E-01
RMM:   5    -0.117083482137E+04    0.95037E-04    0.67919E-06  1052   0.987E-02
   3 F= -.11780888E+04 E0= -.11780888E+04  d E =-.928385E-03  mag=     0.0007
