       N       E                     dE             d eps       ncg     rms          rms(c)
DAV:   1     0.510629146625E+04    0.51063E+04   -0.17419E+05  1800   0.930E+02
DAV:   2     0.213930900004E+01   -0.51042E+04   -0.46826E+04  2592   0.215E+02
DAV:   3    -0.118077413504E+04   -0.11829E+04   -0.11772E+04  2016   0.114E+02
DAV:   4    -0.123226795503E+04   -0.51494E+02   -0.51196E+02  2052   0.318E+01
DAV:   5    -0.123358662758E+04   -0.13187E+01   -0.13153E+01  2304   0.474E+00    0.605E+01
RMM:   6    -0.122197473527E+04    0.11612E+02   -0.72706E+00  1584   0.338E+00    0.497E+01
RMM:   7    -0.118508310702E+04    0.36892E+02   -0.50341E+01  1584   0.837E+00    0.300E+01
RMM:   8    -0.117348148200E+04    0.11602E+02   -0.20668E+01  1584   0.534E+00    0.208E+01
RMM:   9    -0.117227447429E+04    0.12070E+01   -0.26646E+01  1584   0.598E+00    0.923E+00
RMM:  10    -0.117206536372E+04    0.20911E+00   -0.80761E-01  1647   0.138E+00    0.605E+00
RMM:  11    -0.117143825048E+04    0.62711E+00   -0.31569E+00  1584   0.198E+00    0.206E+00
RMM:  12    -0.117142304685E+04    0.15204E-01   -0.18352E-01  1585   0.558E-01    0.105E+00
RMM:  13    -0.117141480038E+04    0.82465E-02   -0.10851E-02  1618   0.152E-01    0.801E-01
RMM:  14    -0.117140629920E+04    0.85012E-02   -0.71973E-02  1584   0.316E-01    0.432E-01
RMM:  15    -0.117140560402E+04    0.69518E-03   -0.46393E-03  1716   0.916E-02    0.326E-01
RMM:  16    -0.117140381050E+04    0.17935E-02   -0.68073E-03  1584   0.103E-01    0.118E-01
RMM:  17    -0.117140402101E+04   -0.21051E-03   -0.13474E-03  1369   0.420E-02    0.808E-02
RMM:  18    -0.117140409048E+04   -0.69474E-04   -0.25742E-04  1111   0.207E-02
   1 F= -.11785181E+04 E0= -.11785181E+04  d E =-.117852E+04  mag=     1.0003
       N       E                     dE             d eps       ncg     rms          rms(c)
DAV:   1    -0.117140407480E+04   -0.53794E-04   -0.33648E-01  1728   0.934E-01    0.213E-01
RMM:   2    -0.117140446828E+04   -0.39348E-03   -0.98851E-03  1584   0.140E-01    0.175E-01
RMM:   3    -0.117140405307E+04    0.41521E-03   -0.56437E-04  1387   0.354E-02    0.147E-01
RMM:   4    -0.117140348132E+04    0.57175E-03   -0.11464E-03  1584   0.389E-02    0.777E-02
RMM:   5    -0.117140341262E+04    0.68697E-04   -0.78845E-04  1577   0.324E-02
   2 F= -.11785177E+04 E0= -.11785177E+04  d E =0.371329E-03  mag=     1.0000
       N       E                     dE             d eps       ncg     rms          rms(c)
DAV:   1    -0.117140482751E+04   -0.13462E-02   -0.97708E-02  1800   0.500E-01    0.110E-01
RMM:   2    -0.117140485354E+04   -0.26035E-04   -0.21764E-03  1584   0.703E-02    0.869E-02
RMM:   3    -0.117140472015E+04    0.13339E-03   -0.11384E-04  1015   0.173E-02    0.722E-02
RMM:   4    -0.117140455080E+04    0.16935E-03   -0.34040E-04  1202   0.230E-02    0.367E-02
RMM:   5    -0.117140453120E+04    0.19605E-04   -0.19443E-04  1027   0.185E-02
   3 F= -.11785187E+04 E0= -.11785187E+04  d E =-.581292E-03  mag=     1.0000
