       N       E                     dE             d eps       ncg     rms          rms(c)
DAV:   1     0.485707189420E+04    0.48571E+04   -0.17061E+05  1872   0.903E+02
DAV:   2    -0.760919651632E+02   -0.49332E+04   -0.44843E+04  2592   0.207E+02
DAV:   3    -0.118664861065E+04   -0.11106E+04   -0.11054E+04  2124   0.108E+02
DAV:   4    -0.123293107413E+04   -0.46282E+02   -0.46031E+02  2124   0.286E+01
DAV:   5    -0.123433907838E+04   -0.14080E+01   -0.14046E+01  2484   0.432E+00    0.619E+01
RMM:   6    -0.122039922187E+04    0.13940E+02   -0.79061E+00  1588   0.311E+00    0.510E+01
RMM:   7    -0.118553093945E+04    0.34868E+02   -0.47393E+01  1588   0.765E+00    0.307E+01
RMM:   8    -0.117261033090E+04    0.12921E+02   -0.20003E+01  1597   0.500E+00    0.225E+01
RMM:   9    -0.116965692287E+04    0.29534E+01   -0.28697E+01  1584   0.602E+00    0.940E+00
RMM:  10    -0.117036892498E+04   -0.71200E+00   -0.22958E+00  1602   0.182E+00    0.701E+00
RMM:  11    -0.116935428735E+04    0.10146E+01   -0.42005E+00  1585   0.219E+00    0.217E+00
RMM:  12    -0.116923811436E+04    0.11617E+00   -0.19139E-01  1590   0.444E-01    0.102E+00
RMM:  13    -0.116922139650E+04    0.16718E-01   -0.57032E-02  1594   0.260E-01    0.566E-01
RMM:  14    -0.116921545705E+04    0.59395E-02   -0.25723E-02  1671   0.148E-01    0.177E-01
RMM:  15    -0.116921515814E+04    0.29891E-03   -0.43025E-03  1709   0.611E-02    0.155E-01
RMM:  16    -0.116921554985E+04   -0.39171E-03   -0.19596E-03  1625   0.485E-02    0.937E-02
RMM:  17    -0.116921565463E+04   -0.10477E-03   -0.52520E-04  1383   0.257E-02    0.636E-02
RMM:  18    -0.116921565329E+04    0.13389E-05   -0.20076E-04  1127   0.167E-02
   1 F= -.11763127E+04 E0= -.11763127E+04  d E =-.117631E+04  mag=     0.0003
       N       E                     dE             d eps       ncg     rms          rms(c)
DAV:   1    -0.116921026853E+04    0.53861E-02   -0.23084E+00  1584   0.214E+00    0.744E-01
RMM:   2    -0.116921508147E+04   -0.48129E-02   -0.62812E-02  1661   0.297E-01    0.702E-01
RMM:   3    -0.116921408348E+04    0.99799E-03   -0.40369E-03  1769   0.644E-02    0.637E-01
RMM:   4    -0.116921443428E+04   -0.35080E-03   -0.12847E-02  1584   0.108E-01    0.241E-01
RMM:   5    -0.116921339532E+04    0.10390E-02   -0.66479E-04  1269   0.258E-02    0.116E-01
RMM:   6    -0.116921315914E+04    0.23617E-03   -0.12081E-03  1452   0.279E-02    0.387E-02
RMM:   7    -0.116921314681E+04    0.12335E-04   -0.10475E-04  1061   0.109E-02
   2 F= -.11763103E+04 E0= -.11763103E+04  d E =0.247937E-02  mag=    -0.0000
       N       E                     dE             d eps       ncg     rms          rms(c)
DAV:   1    -0.116921881107E+04   -0.56519E-02   -0.71049E-01  1620   0.118E+00    0.410E-01
RMM:   2    -0.116922009223E+04   -0.12812E-02   -0.17446E-02  1631   0.157E-01    0.389E-01
RMM:   3    -0.116921972597E+04    0.36626E-03   -0.10230E-03  1395   0.335E-02    0.344E-01
RMM:   4    -0.116921994324E+04   -0.21727E-03   -0.39546E-03  1578   0.593E-02    0.125E-01
RMM:   5    -0.116921954341E+04    0.39984E-03   -0.31989E-04  1117   0.166E-02    0.533E-02
RMM:   6    -0.116921949961E+04    0.43798E-04   -0.29686E-04  1137   0.143E-02
   3 F= -.11763166E+04 E0= -.11763166E+04  d E =-.385179E-02  mag=     0.0000
       N       E                     dE             d eps       ncg     rms          rms(c)
DAV:   1    -0.116922004308E+04   -0.49967E-03   -0.80480E-01  1656   0.139E+00    0.341E-01
RMM:   2    -0.116922105469E+04   -0.10116E-02   -0.16708E-02  1598   0.186E-01    0.308E-01
RMM:   3    -0.116922041628E+04    0.63841E-03   -0.10546E-03  1564   0.404E-02    0.265E-01
RMM:   4    -0.116922022764E+04    0.18864E-03   -0.52202E-03  1584   0.726E-02    0.116E-01
RMM:   5    -0.116921995784E+04    0.26980E-03   -0.19283E-04  1098   0.162E-02    0.738E-02
RMM:   6    -0.116921992465E+04    0.33197E-04   -0.52095E-04  1296   0.194E-02
   4 F= -.11763173E+04 E0= -.11763173E+04  d E =-.699774E-03  mag=    -0.0000
       N       E                     dE             d eps       ncg     rms          rms(c)
DAV:   1    -0.116922126270E+04   -0.13049E-02   -0.16450E-01  1692   0.629E-01    0.154E-01
RMM:   2    -0.116922144044E+04   -0.17775E-03   -0.36261E-03  1606   0.865E-02    0.140E-01
RMM:   3    -0.116922126386E+04    0.17658E-03   -0.20166E-04  1120   0.191E-02    0.120E-01
RMM:   4    -0.116922118755E+04    0.76311E-04   -0.14413E-03  1568   0.388E-02    0.539E-02
RMM:   5    -0.116922111711E+04    0.70438E-04   -0.59451E-05  1016   0.926E-03
   5 F= -.11763184E+04 E0= -.11763184E+04  d E =-.177008E-02  mag=    -0.0000
       N       E                     dE             d eps       ncg     rms          rms(c)
DAV:   1    -0.116922243907E+04   -0.12515E-02   -0.42313E-01  1728   0.999E-01    0.162E-01
RMM:   2    -0.116922287775E+04   -0.43868E-03   -0.74962E-03  1598   0.127E-01    0.152E-01
RMM:   3    -0.116922266900E+04    0.20875E-03   -0.44742E-04  1244   0.278E-02    0.133E-01
RMM:   4    -0.116922242627E+04    0.24272E-03   -0.24340E-03  1580   0.515E-02    0.451E-02
RMM:   5    -0.116922236522E+04    0.61051E-04   -0.39269E-05  1028   0.972E-03
   6 F= -.11763199E+04 E0= -.11763199E+04  d E =-.149772E-02  mag=    -0.0000
       N       E                     dE             d eps       ncg     rms          rms(c)
DAV:   1    -0.116922248617E+04   -0.59900E-04   -0.16588E-02  1728   0.200E-01    0.277E-02
RMM:   2    -0.116922249938E+04   -0.13203E-04   -0.21570E-04  1094   0.223E-02
   7 F= -.11763199E+04 E0= -.11763199E+04  d E =-.157996E-02  mag=    -0.0000
       N       E                     dE             d eps       ncg     rms          rms(c)
DAV:   1    -0.116922348663E+04   -0.10005E-02   -0.26270E-01  1728   0.784E-01    0.112E-01
RMM:   2    -0.116922377734E+04   -0.29070E-03   -0.43687E-03  1592   0.973E-02    0.107E-01
RMM:   3    -0.116922370137E+04    0.75973E-04   -0.25513E-04  1184   0.216E-02
   8 F= -.11763212E+04 E0= -.11763212E+04  d E =-.127688E-02  mag=     0.0000
       N       E                     dE             d eps       ncg     rms          rms(c)
DAV:   1    -0.116922355088E+04    0.22646E-03   -0.28507E-02  1728   0.262E-01    0.756E-02
RMM:   2    -0.116922354142E+04    0.94587E-05   -0.32858E-04  1214   0.267E-02
   9 F= -.11763211E+04 E0= -.11763211E+04  d E =-.114521E-02  mag=    -0.0000
       N       E                     dE             d eps       ncg     rms          rms(c)
DAV:   1    -0.116922392951E+04   -0.37863E-03   -0.14770E-01  1728   0.634E-01    0.914E-02
RMM:   2    -0.116922419377E+04   -0.26425E-03   -0.34515E-03  1596   0.905E-02    0.873E-02
RMM:   3    -0.116922415099E+04    0.42779E-04   -0.13215E-04  1082   0.168E-02
  10 F= -.11763215E+04 E0= -.11763215E+04  d E =-.448496E-03  mag=     0.0000
       N       E                     dE             d eps       ncg     rms          rms(c)
DAV:   1    -0.116922437985E+04   -0.18608E-03   -0.22774E-02  1728   0.248E-01    0.466E-02
RMM:   2    -0.116922442068E+04   -0.40832E-04   -0.97743E-04  1584   0.494E-02
  11 F= -.11763219E+04 E0= -.11763219E+04  d E =-.773099E-03  mag=     0.0000
