       N       E                     dE             d eps       ncg     rms          rms(c)
DAV:   1     0.504495724570E+04    0.50450E+04   -0.17743E+05  1824   0.958E+02
DAV:   2    -0.705964789506E+01   -0.50520E+04   -0.46437E+04  2496   0.219E+02
DAV:   3    -0.119480353096E+04   -0.11877E+04   -0.11807E+04  1920   0.116E+02
DAV:   4    -0.124767541305E+04   -0.52872E+02   -0.52477E+02  1984   0.343E+01
DAV:   5    -0.124921340618E+04   -0.15380E+01   -0.15316E+01  2240   0.532E+00    0.722E+01
RMM:   6    -0.123251995720E+04    0.16693E+02   -0.11186E+01  1586   0.440E+00    0.532E+01
RMM:   7    -0.120789781066E+04    0.24622E+02   -0.35105E+01  1565   0.727E+00    0.352E+01
RMM:   8    -0.118994242508E+04    0.17955E+02   -0.23656E+01  1560   0.678E+00    0.264E+01
RMM:   9    -0.118231437029E+04    0.76281E+01   -0.17822E+01  1560   0.591E+00    0.181E+01
RMM:  10    -0.118305057544E+04   -0.73621E+00   -0.13255E+01  1579   0.514E+00    0.962E+00
RMM:  11    -0.118357860162E+04   -0.52803E+00   -0.27268E+00  1795   0.266E+00    0.753E+00
RMM:  12    -0.118269765778E+04    0.88094E+00   -0.37603E+00  1536   0.245E+00    0.214E+00
RMM:  13    -0.118267718814E+04    0.20470E-01   -0.25897E-01  1541   0.950E-01    0.118E+00
RMM:  14    -0.118267187874E+04    0.53094E-02   -0.56484E-02  1593   0.390E-01    0.790E-01
RMM:  15    -0.118266026436E+04    0.11614E-01   -0.48586E-02  1555   0.298E-01    0.414E-01
RMM:  16    -0.118265991381E+04    0.35055E-03   -0.19959E-02  1734   0.209E-01    0.189E-01
RMM:  17    -0.118265983519E+04    0.78619E-04   -0.33422E-03  1679   0.886E-02    0.136E-01
RMM:  18    -0.118265985971E+04   -0.24518E-04   -0.68946E-04  1648   0.405E-02    0.973E-02
RMM:  19    -0.118265996089E+04   -0.10118E-03   -0.34121E-04  1680   0.252E-02    0.752E-02
RMM:  20    -0.118266001005E+04   -0.49160E-04   -0.12463E-04  1602   0.155E-02    0.513E-02
RMM:  21    -0.118266002224E+04   -0.12196E-04   -0.48349E-05  1592   0.105E-02    0.330E-02
RMM:  22    -0.118266003606E+04   -0.13814E-04   -0.16649E-05  1627   0.614E-03    0.256E-02
RMM:  23    -0.118266004064E+04   -0.45799E-05   -0.12496E-05  1535   0.514E-03    0.133E-02
RMM:  24    -0.118266003982E+04    0.81892E-06   -0.57855E-06  1248   0.363E-03
   1 F= -.11897642E+04 E0= -.11897642E+04  d E =-.118976E+04  mag=     1.0002
       N       E                     dE             d eps       ncg     rms          rms(c)
DAV:   1    -0.118265773245E+04    0.23082E-02   -0.35560E-01  1664   0.111E+00    0.149E-01
RMM:   2    -0.118265866613E+04   -0.93368E-03   -0.11282E-02  1561   0.179E-01    0.185E-01
RMM:   3    -0.118265887381E+04   -0.20768E-03   -0.25330E-03  1917   0.784E-02    0.152E-01
RMM:   4    -0.118265881672E+04    0.57092E-04   -0.35500E-04  1807   0.272E-02    0.143E-01
RMM:   5    -0.118265867618E+04    0.14054E-03   -0.69370E-04  1551   0.311E-02    0.831E-02
RMM:   6    -0.118265874224E+04   -0.66060E-04   -0.52588E-04  1555   0.282E-02    0.709E-02
RMM:   7    -0.118265869427E+04    0.47971E-04   -0.60320E-05  1543   0.134E-02    0.511E-02
RMM:   8    -0.118265869480E+04   -0.52726E-06   -0.73749E-05  1541   0.102E-02    0.311E-02
RMM:   9    -0.118265869618E+04   -0.13821E-05   -0.89566E-06  1576   0.572E-03    0.269E-02
RMM:  10    -0.118265869280E+04    0.33861E-05   -0.15058E-05  1535   0.484E-03    0.197E-02
RMM:  11    -0.118265869254E+04    0.25480E-06   -0.34393E-06  1193   0.288E-03
   2 F= -.11897633E+04 E0= -.11897633E+04  d E =0.856536E-03  mag=     1.0000
       N       E                     dE             d eps       ncg     rms          rms(c)
DAV:   1    -0.118266010820E+04   -0.14154E-02   -0.13851E-01  1728   0.689E-01    0.981E-02
RMM:   2    -0.118266037378E+04   -0.26558E-03   -0.35548E-03  1540   0.109E-01    0.109E-01
RMM:   3    -0.118266041996E+04   -0.46180E-04   -0.69298E-04  1847   0.462E-02    0.862E-02
RMM:   4    -0.118266039162E+04    0.28338E-04   -0.13736E-04  1739   0.176E-02    0.790E-02
RMM:   5    -0.118266034677E+04    0.44852E-04   -0.27768E-04  1554   0.204E-02    0.379E-02
RMM:   6    -0.118266035997E+04   -0.13204E-04   -0.11449E-04  1631   0.142E-02    0.329E-02
RMM:   7    -0.118266034994E+04    0.10038E-04   -0.18553E-05  1541   0.693E-03    0.217E-02
RMM:   8    -0.118266035232E+04   -0.23890E-05   -0.15104E-05  1580   0.507E-03    0.122E-02
RMM:   9    -0.118266035214E+04    0.18252E-06   -0.20436E-06  1029   0.277E-03
   3 F= -.11897647E+04 E0= -.11897647E+04  d E =-.496516E-03  mag=     1.0000
