       N       E                     dE             d eps       ncg     rms          rms(c)
DAV:   1     0.492690760960E+04    0.49269E+04   -0.17181E+05  1728   0.990E+02
DAV:   2     0.149778531344E+02   -0.49119E+04   -0.45136E+04  2268   0.218E+02
DAV:   3    -0.118363252012E+04   -0.11986E+04   -0.11934E+04  1872   0.119E+02
DAV:   4    -0.123599213768E+04   -0.52360E+02   -0.51975E+02  1836   0.331E+01
DAV:   5    -0.123727385626E+04   -0.12817E+01   -0.12781E+01  2052   0.487E+00    0.625E+01
RMM:   6    -0.122085417573E+04    0.16420E+02   -0.89914E+00  1446   0.357E+00    0.512E+01
RMM:   7    -0.118482648088E+04    0.36028E+02   -0.11274E+02  1459   0.115E+01    0.311E+01
RMM:   8    -0.117555314533E+04    0.92733E+01   -0.51535E+00  1503   0.282E+00    0.266E+01
RMM:   9    -0.117111637947E+04    0.44368E+01   -0.18269E+01  1444   0.494E+00    0.175E+01
RMM:  10    -0.117221312980E+04   -0.10968E+01   -0.14367E+01  1448   0.462E+00    0.114E+01
RMM:  11    -0.116930777512E+04    0.29054E+01   -0.20001E+00  1502   0.157E+00    0.769E+00
RMM:  12    -0.116836722569E+04    0.94055E+00   -0.57312E+00  1469   0.202E+00    0.469E+00
RMM:  13    -0.116803408193E+04    0.33314E+00   -0.32304E-01  1526   0.581E-01    0.380E+00
RMM:  14    -0.116789189514E+04    0.14219E+00   -0.63012E-01  1453   0.721E-01    0.226E+00
RMM:  15    -0.116756380274E+04    0.32809E+00   -0.46889E-01  1440   0.702E-01    0.128E+00
RMM:  16    -0.116760596059E+04   -0.42158E-01   -0.38348E-02  1540   0.211E-01    0.981E-01
RMM:  17    -0.116766161901E+04   -0.55658E-01   -0.24859E-02  1462   0.173E-01    0.738E-01
RMM:  18    -0.116780353111E+04   -0.14191E+00   -0.67660E-02  1451   0.247E-01    0.561E-01
RMM:  19    -0.116786672783E+04   -0.63197E-01   -0.16484E-01  1436   0.219E-01    0.376E-01
RMM:  20    -0.116786441241E+04    0.23154E-02   -0.26721E-02  1449   0.961E-02    0.228E-01
RMM:  21    -0.116786476442E+04   -0.35201E-03   -0.20903E-03  1323   0.414E-02    0.199E-01
RMM:  22    -0.116786420847E+04    0.55594E-03   -0.13711E-03  1208   0.354E-02    0.130E-01
RMM:  23    -0.116786444796E+04   -0.23949E-03   -0.68015E-04  1072   0.221E-02    0.674E-02
RMM:  24    -0.116786434870E+04    0.99254E-04   -0.32870E-04  1001   0.165E-02
   1 F= -.11751004E+04 E0= -.11751004E+04  d E =-.117510E+04  mag=     0.9988
       N       E                     dE             d eps       ncg     rms          rms(c)
DAV:   1    -0.116786419093E+04    0.25703E-03   -0.23748E-01  1512   0.854E-01    0.185E-01
RMM:   2    -0.116786455859E+04   -0.36767E-03   -0.80515E-03  1479   0.135E-01    0.169E-01
RMM:   3    -0.116786407356E+04    0.48503E-03   -0.56735E-04  1182   0.328E-02    0.138E-01
RMM:   4    -0.116786357663E+04    0.49692E-03   -0.31346E-03  1440   0.664E-02    0.548E-02
RMM:   5    -0.116786354645E+04    0.30181E-04   -0.56918E-05   904   0.128E-02
   2 F= -.11751001E+04 E0= -.11751001E+04  d E =0.337252E-03  mag=     0.9995
       N       E                     dE             d eps       ncg     rms          rms(c)
DAV:   1    -0.116786496257E+04   -0.13859E-02   -0.81460E-02  1548   0.500E-01    0.104E-01
RMM:   2    -0.116786502260E+04   -0.60031E-04   -0.21982E-03  1477   0.730E-02    0.934E-02
RMM:   3    -0.116786482631E+04    0.19629E-03   -0.16582E-04   928   0.189E-02    0.716E-02
RMM:   4    -0.116786467244E+04    0.15387E-03   -0.93197E-04  1434   0.367E-02    0.263E-02
RMM:   5    -0.116786466710E+04    0.53397E-05   -0.16205E-05   863   0.706E-03
   3 F= -.11751009E+04 E0= -.11751009E+04  d E =-.507211E-03  mag=     0.9997
