       N       E                     dE             d eps       ncg     rms          rms(c)
DAV:   1     0.518097139590E+04    0.51810E+04   -0.17020E+05  1800   0.918E+02
DAV:   2     0.445028046897E+02   -0.51365E+04   -0.46579E+04  2484   0.218E+02
DAV:   3    -0.118162386529E+04   -0.12261E+04   -0.12192E+04  2124   0.116E+02
DAV:   4    -0.123697707590E+04   -0.55353E+02   -0.54967E+02  2016   0.333E+01
DAV:   5    -0.123934474007E+04   -0.23677E+01   -0.23624E+01  2556   0.670E+00    0.605E+01
RMM:   6    -0.122636909048E+04    0.12976E+02   -0.64179E+00  1753   0.335E+00    0.491E+01
RMM:   7    -0.118461527043E+04    0.41754E+02   -0.61507E+01  1978   0.102E+01    0.286E+01
RMM:   8    -0.117319690065E+04    0.11418E+02   -0.44912E+01  1933   0.102E+01    0.121E+01
RMM:   9    -0.117494124022E+04   -0.17443E+01   -0.81250E+00  1893   0.882E+00    0.902E+00
RMM:  10    -0.117460284511E+04    0.33840E+00   -0.17574E+00  1952   0.373E+00    0.545E+00
RMM:  11    -0.117400240637E+04    0.60044E+00   -0.15333E+00  1892   0.215E+00    0.215E+00
RMM:  12    -0.117400381894E+04   -0.14126E-02   -0.23411E-01  1985   0.127E+00    0.134E+00
RMM:  13    -0.117398460318E+04    0.19216E-01   -0.13768E-01  2014   0.608E-01    0.522E-01
RMM:  14    -0.117398522194E+04   -0.61876E-03   -0.41617E-02  2030   0.299E-01    0.300E-01
RMM:  15    -0.117398415356E+04    0.10684E-02   -0.91877E-03  1962   0.155E-01    0.209E-01
RMM:  16    -0.117398404630E+04    0.10726E-03   -0.28617E-03  1848   0.105E-01    0.126E-01
RMM:  17    -0.117398425397E+04   -0.20766E-03   -0.83850E-04  1494   0.829E-02    0.965E-02
RMM:  18    -0.117398440654E+04   -0.15258E-03   -0.70786E-04  1482   0.555E-02    0.475E-02
RMM:  19    -0.117398437607E+04    0.30475E-04   -0.13616E-04  1087   0.346E-02
   1 F= -.11816901E+04 E0= -.11816901E+04  d E =-.118169E+04  mag=     0.0022
       N       E                     dE             d eps       ncg     rms          rms(c)
DAV:   1    -0.117398015699E+04    0.42496E-02   -0.80425E-01  1800   0.139E+00    0.227E-01
RMM:   2    -0.117398206167E+04   -0.19047E-02   -0.24607E-02  1998   0.246E-01    0.206E-01
RMM:   3    -0.117398191124E+04    0.15043E-03   -0.15880E-03  1700   0.101E-01    0.184E-01
RMM:   4    -0.117398121536E+04    0.69588E-03   -0.22480E-03  1946   0.852E-02    0.920E-02
RMM:   5    -0.117398119644E+04    0.18922E-04   -0.46281E-04  1434   0.490E-02
   2 F= -.11816871E+04 E0= -.11816871E+04  d E =0.301780E-02  mag=     0.0004
       N       E                     dE             d eps       ncg     rms          rms(c)
DAV:   1    -0.117398505647E+04   -0.38411E-02   -0.35900E-01  1872   0.925E-01    0.143E-01
RMM:   2    -0.117398575308E+04   -0.69661E-03   -0.94658E-03  1929   0.152E-01    0.128E-01
RMM:   3    -0.117398566339E+04    0.89682E-04   -0.60949E-04  1271   0.674E-02
   3 F= -.11816915E+04 E0= -.11816915E+04  d E =-.134049E-02  mag=    -0.0001
       N       E                     dE             d eps       ncg     rms          rms(c)
DAV:   1    -0.117398305189E+04    0.27012E-02   -0.40667E-01  1800   0.976E-01    0.215E-01
RMM:   2    -0.117398367117E+04   -0.61928E-03   -0.10982E-02  1923   0.160E-01    0.194E-01
RMM:   3    -0.117398334884E+04    0.32233E-03   -0.69069E-04  1348   0.744E-02    0.162E-01
RMM:   4    -0.117398282387E+04    0.52497E-03   -0.16682E-03  1884   0.704E-02    0.795E-02
RMM:   5    -0.117398279185E+04    0.32019E-04   -0.33527E-04  1162   0.411E-02
   4 F= -.11816882E+04 E0= -.11816882E+04  d E =0.326999E-02  mag=    -0.0000
       N       E                     dE             d eps       ncg     rms          rms(c)
DAV:   1    -0.117398577167E+04   -0.29478E-02   -0.25750E-01  1908   0.776E-01    0.141E-01
RMM:   2    -0.117398618814E+04   -0.41648E-03   -0.68287E-03  1887   0.127E-01    0.129E-01
RMM:   3    -0.117398607430E+04    0.11384E-03   -0.42540E-04  1212   0.675E-02    0.112E-01
RMM:   4    -0.117398575245E+04    0.32185E-03   -0.60277E-04  1508   0.526E-02    0.593E-02
RMM:   5    -0.117398573671E+04    0.15746E-04   -0.45709E-04  1274   0.511E-02
   5 F= -.11816915E+04 E0= -.11816915E+04  d E =0.169489E-04  mag=    -0.0000
