       N       E                     dE             d eps       ncg     rms          rms(c)
DAV:   1     0.498824238623E+04    0.49882E+04   -0.17215E+05  1836   0.917E+02
DAV:   2    -0.340441314089E+02   -0.50223E+04   -0.45897E+04  2520   0.208E+02
DAV:   3    -0.119392051223E+04   -0.11599E+04   -0.11546E+04  2124   0.111E+02
DAV:   4    -0.123985061605E+04   -0.45930E+02   -0.45697E+02  2052   0.294E+01
DAV:   5    -0.124102145916E+04   -0.11708E+01   -0.11680E+01  2340   0.432E+00    0.689E+01
RMM:   6    -0.122434268443E+04    0.16679E+02   -0.33250E+01  1584   0.530E+00    0.569E+01
RMM:   7    -0.120906867059E+04    0.15274E+02   -0.72992E+00  1584   0.310E+00    0.466E+01
RMM:   8    -0.118503868715E+04    0.24030E+02   -0.55193E+01  1584   0.841E+00    0.325E+01
RMM:   9    -0.117712833336E+04    0.79104E+01   -0.25607E+00  1593   0.196E+00    0.249E+01
RMM:  10    -0.117385700328E+04    0.32713E+01   -0.16724E+01  1584   0.428E+00    0.178E+01
RMM:  11    -0.117657060019E+04   -0.27136E+01   -0.98911E+00  1584   0.347E+00    0.133E+01
RMM:  12    -0.117477813950E+04    0.17925E+01   -0.10264E+00  1622   0.110E+00    0.903E+00
RMM:  13    -0.117306091524E+04    0.17172E+01   -0.13319E+00  1584   0.986E-01    0.622E+00
RMM:  14    -0.117227927219E+04    0.78164E+00   -0.17404E+00  1584   0.115E+00    0.476E+00
RMM:  15    -0.117228063644E+04   -0.13643E-02   -0.21254E-01  1591   0.384E-01    0.484E+00
RMM:  16    -0.117229369464E+04   -0.13058E-01   -0.29919E-02  1652   0.145E-01    0.411E+00
RMM:  17    -0.117228142114E+04    0.12274E-01   -0.18013E-01  1584   0.361E-01    0.249E+00
RMM:  18    -0.117225046766E+04    0.30953E-01   -0.54044E-02  1584   0.212E-01    0.230E+00
RMM:  19    -0.117223894830E+04    0.11519E-01   -0.95993E-02  1591   0.193E-01    0.123E+00
RMM:  20    -0.117223810613E+04    0.84217E-03   -0.61578E-03  1587   0.589E-02    0.109E+00
RMM:  21    -0.117223534223E+04    0.27639E-02   -0.37530E-03  1432   0.480E-02    0.105E+00
RMM:  22    -0.117223429486E+04    0.10474E-02   -0.19692E-03  1329   0.379E-02    0.768E-01
RMM:  23    -0.117223273522E+04    0.15596E-02   -0.48824E-03  1475   0.588E-02    0.358E-01
RMM:  24    -0.117223260589E+04    0.12933E-03   -0.13306E-03  1228   0.304E-02    0.151E-01
RMM:  25    -0.117223257855E+04    0.27347E-04   -0.15335E-04  1055   0.113E-02
   1 F= -.11795581E+04 E0= -.11795581E+04  d E =-.117956E+04  mag=    -1.0218
       N       E                     dE             d eps       ncg     rms          rms(c)
DAV:   1    -0.117222738335E+04    0.52225E-02   -0.12974E+00  1656   0.170E+00    0.615E-01
RMM:   2    -0.117223024684E+04   -0.28635E-02   -0.32647E-02  1586   0.238E-01    0.572E-01
RMM:   3    -0.117222990390E+04    0.34294E-03   -0.20002E-03  1573   0.526E-02    0.484E-01
RMM:   4    -0.117222933536E+04    0.56854E-03   -0.51055E-03  1584   0.816E-02    0.125E-01
RMM:   5    -0.117222934057E+04   -0.52067E-05   -0.15622E-04  1084   0.173E-02
   2 F= -.11795557E+04 E0= -.11795557E+04  d E =0.243316E-02  mag=    -1.0024
       N       E                     dE             d eps       ncg     rms          rms(c)
DAV:   1    -0.117223324002E+04   -0.39047E-02   -0.52186E-01  1836   0.107E+00    0.389E-01
RMM:   2    -0.117223411077E+04   -0.87075E-03   -0.11561E-02  1588   0.144E-01    0.361E-01
RMM:   3    -0.117223381680E+04    0.29397E-03   -0.72898E-04  1338   0.330E-02    0.294E-01
RMM:   4    -0.117223354236E+04    0.27444E-03   -0.28131E-03  1584   0.600E-02    0.708E-02
RMM:   5    -0.117223351301E+04    0.29348E-04   -0.56824E-05  1003   0.116E-02
   3 F= -.11795594E+04 E0= -.11795594E+04  d E =-.123096E-02  mag=    -1.0008
       N       E                     dE             d eps       ncg     rms          rms(c)
DAV:   1    -0.117223491075E+04   -0.13684E-02   -0.43245E-01  1656   0.993E-01    0.361E-01
RMM:   2    -0.117223494704E+04   -0.36291E-04   -0.87260E-03  1584   0.125E-01    0.303E-01
RMM:   3    -0.117223404631E+04    0.90074E-03   -0.10795E-03  1583   0.381E-02    0.222E-01
RMM:   4    -0.117223352846E+04    0.51784E-03   -0.14024E-03  1585   0.410E-02    0.125E-01
RMM:   5    -0.117223347671E+04    0.51746E-04   -0.74356E-04  1402   0.277E-02
   4 F= -.11795596E+04 E0= -.11795596E+04  d E =-.207282E-03  mag=    -0.9999
       N       E                     dE             d eps       ncg     rms          rms(c)
DAV:   1    -0.117223455946E+04   -0.10310E-02   -0.87920E-02  1692   0.447E-01    0.159E-01
RMM:   2    -0.117223448887E+04    0.70591E-04   -0.17402E-03  1542   0.563E-02    0.134E-01
RMM:   3    -0.117223423740E+04    0.25147E-03   -0.25246E-04  1087   0.194E-02    0.962E-02
RMM:   4    -0.117223409531E+04    0.14209E-03   -0.38251E-04  1214   0.226E-02    0.531E-02
RMM:   5    -0.117223408936E+04    0.59440E-05   -0.15718E-04  1004   0.145E-02
   5 F= -.11795601E+04 E0= -.11795601E+04  d E =-.710503E-03  mag=    -1.0000
