       N       E                     dE             d eps       ncg     rms          rms(c)
DAV:   1     0.509006234107E+04    0.50901E+04   -0.17364E+05  1800   0.928E+02
DAV:   2    -0.863738654049E+01   -0.50987E+04   -0.46775E+04  2592   0.214E+02
DAV:   3    -0.118430847672E+04   -0.11757E+04   -0.11700E+04  2088   0.113E+02
DAV:   4    -0.123277133793E+04   -0.48463E+02   -0.48208E+02  2016   0.305E+01
DAV:   5    -0.123398608824E+04   -0.12148E+01   -0.12115E+01  2268   0.451E+00    0.608E+01
RMM:   6    -0.122167446511E+04    0.12312E+02   -0.82400E+00  1584   0.379E+00    0.495E+01
RMM:   7    -0.118778827686E+04    0.33886E+02   -0.45600E+01  1584   0.799E+00    0.323E+01
RMM:   8    -0.117827501639E+04    0.95133E+01   -0.10057E+01  1588   0.377E+00    0.251E+01
RMM:   9    -0.117142896701E+04    0.68460E+01   -0.17840E+01  1584   0.494E+00    0.153E+01
RMM:  10    -0.117242939067E+04   -0.10004E+01   -0.11729E+01  1584   0.410E+00    0.809E+00
RMM:  11    -0.117171330819E+04    0.71608E+00   -0.27190E+00  1592   0.192E+00    0.747E+00
RMM:  12    -0.117131397025E+04    0.39934E+00   -0.69855E-01  1585   0.731E-01    0.173E+00
RMM:  13    -0.117131842394E+04   -0.44537E-02   -0.26898E-02  1630   0.213E-01    0.130E+00
RMM:  14    -0.117129849403E+04    0.19930E-01   -0.36067E-02  1585   0.185E-01    0.536E-01
RMM:  15    -0.117130187455E+04   -0.33805E-02   -0.56250E-03  1597   0.932E-02    0.593E-01
RMM:  16    -0.117129809708E+04    0.37775E-02   -0.63383E-03  1556   0.718E-02    0.274E-01
RMM:  17    -0.117129848767E+04   -0.39060E-03   -0.10828E-03  1281   0.365E-02    0.198E-01
RMM:  18    -0.117129880734E+04   -0.31967E-03   -0.31825E-04  1146   0.234E-02    0.183E-01
RMM:  19    -0.117129859408E+04    0.21325E-03   -0.20417E-04  1068   0.171E-02    0.975E-02
RMM:  20    -0.117129860797E+04   -0.13890E-04   -0.68525E-05  1022   0.111E-02
   1 F= -.11784358E+04 E0= -.11784358E+04  d E =-.117844E+04  mag=     0.0004
       N       E                     dE             d eps       ncg     rms          rms(c)
DAV:   1    -0.117129677692E+04    0.18172E-02   -0.30109E-01  1692   0.851E-01    0.168E-01
RMM:   2    -0.117129738210E+04   -0.60518E-03   -0.99382E-03  1584   0.130E-01    0.142E-01
RMM:   3    -0.117129721917E+04    0.16293E-03   -0.48221E-04  1241   0.318E-02    0.124E-01
RMM:   4    -0.117129699382E+04    0.22535E-03   -0.76364E-04  1518   0.323E-02    0.648E-02
RMM:   5    -0.117129697803E+04    0.15785E-04   -0.10345E-04  1011   0.146E-02
   2 F= -.11784344E+04 E0= -.11784344E+04  d E =0.137068E-02  mag=     0.0000
       N       E                     dE             d eps       ncg     rms          rms(c)
DAV:   1    -0.117129878129E+04   -0.17875E-02   -0.14408E-01  1692   0.587E-01    0.980E-02
RMM:   2    -0.117129907358E+04   -0.29230E-03   -0.43049E-03  1584   0.882E-02    0.885E-02
RMM:   3    -0.117129899485E+04    0.78734E-04   -0.16029E-04  1039   0.192E-02
   3 F= -.11784362E+04 E0= -.11784362E+04  d E =-.468519E-03  mag=    -0.0000
