       N       E                     dE             d eps       ncg     rms          rms(c)
DAV:   1     0.483960212060E+04    0.48396E+04   -0.17502E+05  1872   0.911E+02
DAV:   2    -0.750550972506E+02   -0.49147E+04   -0.44803E+04  2520   0.209E+02
DAV:   3    -0.119060487066E+04   -0.11155E+04   -0.11082E+04  2088   0.110E+02
DAV:   4    -0.123691246994E+04   -0.46308E+02   -0.46091E+02  2052   0.292E+01
DAV:   5    -0.123812546069E+04   -0.12130E+01   -0.12104E+01  2376   0.450E+00    0.939E+01
RMM:   6    -0.123493382458E+04    0.31916E+01   -0.17488E+02  1803   0.158E+01    0.953E+01
RMM:   7    -0.121377139945E+04    0.21162E+02   -0.92238E+00  1596   0.413E+00    0.714E+01
RMM:   8    -0.118882924844E+04    0.24942E+02   -0.32394E+01  1590   0.662E+00    0.356E+01
RMM:   9    -0.117761314856E+04    0.11216E+02   -0.71014E+00  1588   0.338E+00    0.299E+01
RMM:  10    -0.116254597021E+04    0.15067E+02   -0.39311E+01  1588   0.701E+00    0.169E+01
RMM:  11    -0.116172812983E+04    0.81784E+00   -0.27169E+00  1604   0.210E+00    0.127E+01
RMM:  12    -0.116229358284E+04   -0.56545E+00   -0.36222E+00  1587   0.218E+00    0.816E+00
RMM:  13    -0.116207987798E+04    0.21370E+00   -0.27542E-01  1685   0.796E-01    0.542E+00
RMM:  14    -0.116232016927E+04   -0.24029E+00   -0.10816E+00  1590   0.118E+00    0.750E+00
RMM:  15    -0.116181495053E+04    0.50522E+00   -0.41411E-01  1597   0.771E-01    0.396E+00
RMM:  16    -0.116170169504E+04    0.11326E+00   -0.22443E-01  1622   0.513E-01    0.176E+00
RMM:  17    -0.116170358854E+04   -0.18935E-02   -0.18522E-02  1650   0.172E-01    0.188E+00
RMM:  18    -0.116171306403E+04   -0.94755E-02   -0.31739E-03  1567   0.594E-02    0.166E+00
RMM:  19    -0.116173208981E+04   -0.19026E-01   -0.11005E-02  1603   0.923E-02    0.998E-01
RMM:  20    -0.116173774002E+04   -0.56502E-02   -0.43865E-03  1591   0.666E-02    0.694E-01
RMM:  21    -0.116174233400E+04   -0.45940E-02   -0.57674E-03  1589   0.843E-02    0.555E-01
RMM:  22    -0.116174458319E+04   -0.22492E-02   -0.27632E-03  1579   0.629E-02    0.390E-01
RMM:  23    -0.116174082409E+04    0.37591E-02   -0.35969E-02  1588   0.240E-01    0.326E-01
RMM:  24    -0.116174734402E+04   -0.65199E-02   -0.26913E-03  1587   0.722E-02    0.301E-01
RMM:  25    -0.116174865102E+04   -0.13070E-02   -0.10105E-03  1425   0.386E-02    0.126E-01
RMM:  26    -0.116174866369E+04   -0.12668E-04   -0.74583E-04  1400   0.348E-02
   1 F= -.11688002E+04 E0= -.11687979E+04  d E =-.116880E+04  mag=    -1.9715
       N       E                     dE             d eps       ncg     rms          rms(c)
DAV:   1    -0.116175005675E+04   -0.14057E-02   -0.27785E-01  1692   0.874E-01    0.226E-01
RMM:   2    -0.116175029165E+04   -0.23489E-03   -0.79683E-03  1632   0.137E-01    0.195E-01
RMM:   3    -0.116174963231E+04    0.65934E-03   -0.75818E-04  1580   0.376E-02    0.150E-01
RMM:   4    -0.116174892925E+04    0.70306E-03   -0.14319E-03  1580   0.428E-02    0.742E-02
RMM:   5    -0.116174886868E+04    0.60572E-04   -0.31305E-04  1197   0.219E-02
   2 F= -.11688005E+04 E0= -.11687979E+04  d E =-.273061E-03  mag=    -1.9350
       N       E                     dE             d eps       ncg     rms          rms(c)
DAV:   1    -0.116175005357E+04   -0.11243E-02   -0.49674E-02  1728   0.367E-01    0.827E-02
RMM:   2    -0.116175003836E+04    0.15207E-04   -0.11793E-03  1618   0.551E-02    0.756E-02
RMM:   3    -0.116174990550E+04    0.13286E-03   -0.85971E-05  1008   0.143E-02    0.614E-02
RMM:   4    -0.116174974690E+04    0.15860E-03   -0.51786E-04  1491   0.260E-02    0.221E-02
RMM:   5    -0.116174974891E+04   -0.20126E-05   -0.27385E-05   987   0.844E-03
   3 F= -.11688013E+04 E0= -.11687987E+04  d E =-.112348E-02  mag=    -1.9341
       N       E                     dE             d eps       ncg     rms          rms(c)
DAV:   1    -0.116174827010E+04    0.14768E-02   -0.20704E-01  1692   0.869E-01    0.112E-01
RMM:   2    -0.116174890544E+04   -0.63534E-03   -0.75297E-03  1634   0.127E-01    0.109E-01
RMM:   3    -0.116174879721E+04    0.10823E-03   -0.29202E-04  1192   0.257E-02    0.103E-01
RMM:   4    -0.116174856631E+04    0.23090E-03   -0.80062E-04  1545   0.341E-02    0.403E-02
RMM:   5    -0.116174856792E+04   -0.16105E-05   -0.97447E-05  1003   0.141E-02
   4 F= -.11688002E+04 E0= -.11687976E+04  d E =0.110582E-02  mag=    -1.9339
       N       E                     dE             d eps       ncg     rms          rms(c)
DAV:   1    -0.116175004776E+04   -0.14814E-02   -0.89097E-02  1728   0.571E-01    0.710E-02
RMM:   2    -0.116175029731E+04   -0.24955E-03   -0.30278E-03  1641   0.822E-02    0.673E-02
RMM:   3    -0.116175025649E+04    0.40822E-04   -0.10872E-04  1024   0.166E-02
   5 F= -.11688019E+04 E0= -.11687993E+04  d E =-.533226E-03  mag=    -1.9340
