       N       E                     dE             d eps       ncg     rms          rms(c)
DAV:   1     0.486116696045E+04    0.48612E+04   -0.17228E+05  1872   0.908E+02
DAV:   2    -0.619732607886E+02   -0.49231E+04   -0.44840E+04  2520   0.206E+02
DAV:   3    -0.119261251465E+04   -0.11306E+04   -0.11262E+04  2088   0.109E+02
DAV:   4    -0.123872657233E+04   -0.46114E+02   -0.45888E+02  1980   0.289E+01
DAV:   5    -0.123993522192E+04   -0.12086E+01   -0.12065E+01  2340   0.437E+00    0.904E+01
RMM:   6    -0.122621474426E+04    0.13720E+02   -0.80378E+00  1584   0.313E+00    0.790E+01
RMM:   7    -0.118192419735E+04    0.44291E+02   -0.89693E+01  1584   0.107E+01    0.426E+01
RMM:   8    -0.118203579011E+04   -0.11159E+00   -0.16218E+01  1608   0.330E+00    0.516E+01
RMM:   9    -0.119780773379E+04   -0.15772E+02   -0.72164E+01  1584   0.834E+00    0.357E+01
RMM:  10    -0.118961366219E+04    0.81941E+01   -0.23766E+00  1620   0.163E+00    0.267E+01
RMM:  11    -0.118627380551E+04    0.33399E+01   -0.81358E-01  1590   0.659E-01    0.244E+01
RMM:  12    -0.117782066792E+04    0.84531E+01   -0.98136E+00  1593   0.219E+00    0.144E+01
RMM:  13    -0.117733740948E+04    0.48326E+00   -0.37180E-01  1615   0.457E-01    0.121E+01
RMM:  14    -0.117665191781E+04    0.68549E+00   -0.16374E-01  1585   0.343E-01    0.113E+01
RMM:  15    -0.117503889112E+04    0.16130E+01   -0.12133E+00  1584   0.106E+00    0.698E+00
RMM:  16    -0.117458950993E+04    0.44938E+00   -0.36034E-01  1584   0.594E-01    0.519E+00
RMM:  17    -0.117467114326E+04   -0.81633E-01   -0.56372E-02  1621   0.212E-01    0.546E+00
RMM:  18    -0.117449982532E+04    0.17132E+00   -0.44020E-02  1584   0.174E-01    0.471E+00
RMM:  19    -0.117438093615E+04    0.11889E+00   -0.82634E-02  1599   0.244E-01    0.445E+00
RMM:  20    -0.117432285855E+04    0.58078E-01   -0.17582E-02  1587   0.105E-01    0.377E+00
RMM:  21    -0.117429336786E+04    0.29491E-01   -0.80216E-03  1549   0.574E-02    0.330E+00
RMM:  22    -0.117426896667E+04    0.24401E-01   -0.14114E-02  1585   0.899E-02    0.273E+00
RMM:  23    -0.117425627545E+04    0.12691E-01   -0.12249E-01  1584   0.237E-01    0.255E+00
RMM:  24    -0.117424292567E+04    0.13350E-01   -0.70161E-03  1576   0.725E-02    0.178E+00
RMM:  25    -0.117424828026E+04   -0.53546E-02   -0.60672E-02  1584   0.138E-01    0.159E+00
RMM:  26    -0.117423604688E+04    0.12233E-01   -0.58638E-03  1576   0.668E-02    0.916E-01
RMM:  27    -0.117423256637E+04    0.34805E-02   -0.37382E-03  1561   0.468E-02    0.407E-01
RMM:  28    -0.117423252942E+04    0.36950E-04   -0.16194E-03  1294   0.300E-02    0.280E-01
RMM:  29    -0.117423241631E+04    0.11311E-03   -0.54953E-04  1104   0.163E-02    0.251E-01
RMM:  30    -0.117423277376E+04   -0.35745E-03   -0.24734E-04  1086   0.151E-02    0.239E-01
RMM:  31    -0.117423247200E+04    0.30176E-03   -0.21909E-04  1064   0.149E-02    0.309E-01
RMM:  32    -0.117423241664E+04    0.55365E-04   -0.95591E-05  1032   0.948E-03
   1 F= -.11815854E+04 E0= -.11815854E+04  d E =-.118159E+04  mag=    -1.0057
       N       E                     dE             d eps       ncg     rms          rms(c)
DAV:   1    -0.117422989667E+04    0.25753E-02   -0.70083E-01  1656   0.125E+00    0.893E-01
RMM:   2    -0.117423127531E+04   -0.13786E-02   -0.19154E-02  1584   0.182E-01    0.864E-01
RMM:   3    -0.117423098610E+04    0.28921E-03   -0.10848E-03  1499   0.394E-02    0.812E-01
RMM:   4    -0.117423046025E+04    0.52585E-03   -0.85333E-03  1584   0.992E-02    0.161E-01
RMM:   5    -0.117423033224E+04    0.12800E-03   -0.13465E-04  1076   0.177E-02    0.130E-01
RMM:   6    -0.117423024627E+04    0.85974E-04   -0.69510E-05  1017   0.104E-02
   2 F= -.11815841E+04 E0= -.11815841E+04  d E =0.128510E-02  mag=    -1.0002
       N       E                     dE             d eps       ncg     rms          rms(c)
DAV:   1    -0.117423336533E+04   -0.30331E-02   -0.22398E-01  1656   0.705E-01    0.547E-01
RMM:   2    -0.117423355493E+04   -0.18960E-03   -0.47388E-03  1584   0.944E-02    0.495E-01
RMM:   3    -0.117423318534E+04    0.36958E-03   -0.44556E-04  1271   0.267E-02    0.381E-01
RMM:   4    -0.117423308963E+04    0.95712E-04   -0.25704E-03  1584   0.546E-02    0.112E-01
RMM:   5    -0.117423299143E+04    0.98199E-04   -0.99212E-05  1025   0.127E-02
   3 F= -.11815863E+04 E0= -.11815863E+04  d E =-.951948E-03  mag=    -1.0000
