       N       E                     dE             d eps       ncg     rms          rms(c)
DAV:   1     0.500490675343E+04    0.50049E+04   -0.16717E+05  1764   0.901E+02
DAV:   2    -0.430716243179E+02   -0.50480E+04   -0.46014E+04  2556   0.212E+02
DAV:   3    -0.119246384757E+04   -0.11494E+04   -0.11406E+04  2160   0.112E+02
DAV:   4    -0.123958567745E+04   -0.47122E+02   -0.46904E+02  2052   0.302E+01
DAV:   5    -0.124092412713E+04   -0.13384E+01   -0.13353E+01  2376   0.489E+00    0.750E+01
RMM:   6    -0.124204454333E+04   -0.11204E+01   -0.11753E+02  1763   0.141E+01    0.808E+01
RMM:   7    -0.121803210079E+04    0.24012E+02   -0.74586E+00  1584   0.457E+00    0.584E+01
RMM:   8    -0.119956128904E+04    0.18471E+02   -0.15123E+01  1592   0.432E+00    0.409E+01
RMM:   9    -0.117728079362E+04    0.22280E+02   -0.27936E+01  1592   0.632E+00    0.279E+01
RMM:  10    -0.116819928484E+04    0.90815E+01   -0.18600E+01  1584   0.572E+00    0.189E+01
RMM:  11    -0.116833308101E+04   -0.13380E+00   -0.51021E+00  1611   0.335E+00    0.151E+01
RMM:  12    -0.116889537661E+04   -0.56230E+00   -0.38509E+00  1585   0.249E+00    0.975E+00
RMM:  13    -0.116821264285E+04    0.68273E+00   -0.13396E+00  1678   0.175E+00    0.558E+00
RMM:  14    -0.116800187043E+04    0.21077E+00   -0.22211E-01  1666   0.609E-01    0.282E+00
RMM:  15    -0.116787602291E+04    0.12585E+00   -0.35733E-01  1586   0.788E-01    0.190E+00
RMM:  16    -0.116788867970E+04   -0.12657E-01   -0.74737E-02  1735   0.419E-01    0.191E+00
RMM:  17    -0.116786953134E+04    0.19148E-01   -0.15636E-02  1819   0.172E-01    0.131E+00
RMM:  18    -0.116786044084E+04    0.90905E-02   -0.63438E-03  1636   0.103E-01    0.891E-01
RMM:  19    -0.116785945721E+04    0.98363E-03   -0.62497E-03  1648   0.947E-02    0.618E-01
RMM:  20    -0.116786084145E+04   -0.13842E-02   -0.13510E-02  1597   0.158E-01    0.289E-01
RMM:  21    -0.116786384320E+04   -0.30018E-02   -0.19129E-03  1567   0.712E-02    0.260E-01
RMM:  22    -0.116786445388E+04   -0.61068E-03   -0.10798E-03  1553   0.425E-02    0.186E-01
RMM:  23    -0.116786428836E+04    0.16551E-03   -0.68689E-04  1268   0.394E-02    0.110E-01
RMM:  24    -0.116786448817E+04   -0.19980E-03   -0.48016E-04  1271   0.296E-02    0.579E-02
RMM:  25    -0.116786454764E+04   -0.59476E-04   -0.76946E-05  1053   0.182E-02
   1 F= -.11748981E+04 E0= -.11748966E+04  d E =-.117490E+04  mag=     0.9677
       N       E                     dE             d eps       ncg     rms          rms(c)
DAV:   1    -0.116786372581E+04    0.76236E-03   -0.27480E-01  1620   0.853E-01    0.144E-01
RMM:   2    -0.116786435757E+04   -0.63177E-03   -0.87524E-03  1685   0.142E-01    0.143E-01
RMM:   3    -0.116786429861E+04    0.58968E-04   -0.58596E-04  1395   0.495E-02
   2 F= -.11748980E+04 E0= -.11748966E+04  d E =0.764265E-04  mag=     0.9683
       N       E                     dE             d eps       ncg     rms          rms(c)
DAV:   1    -0.116786470766E+04   -0.35009E-03   -0.67478E-02  1692   0.421E-01    0.782E-02
RMM:   2    -0.116786491634E+04   -0.20868E-03   -0.18843E-03  1588   0.688E-02    0.548E-02
RMM:   3    -0.116786492829E+04   -0.11946E-04   -0.13329E-04  1027   0.270E-02
   3 F= -.11748985E+04 E0= -.11748971E+04  d E =-.467446E-03  mag=     0.9687
