       N       E                     dE             d eps       ncg     rms          rms(c)
DAV:   1     0.457286942973E+04    0.45729E+04   -0.17697E+05  1944   0.911E+02
DAV:   2    -0.120405913992E+03   -0.46933E+04   -0.42768E+04  2520   0.203E+02
DAV:   3    -0.119164068648E+04   -0.10712E+04   -0.10651E+04  2124   0.105E+02
DAV:   4    -0.123391040674E+04   -0.42270E+02   -0.42044E+02  2088   0.275E+01
DAV:   5    -0.123497758231E+04   -0.10672E+01   -0.10642E+01  2340   0.405E+00    0.670E+01
RMM:   6    -0.122183544724E+04    0.13142E+02   -0.25712E+01  1584   0.501E+00    0.520E+01
RMM:   7    -0.120465430169E+04    0.17181E+02   -0.88814E+00  1584   0.343E+00    0.424E+01
RMM:   8    -0.117880478846E+04    0.25850E+02   -0.47291E+01  1584   0.786E+00    0.328E+01
RMM:   9    -0.117039359313E+04    0.84112E+01   -0.16409E+01  1584   0.445E+00    0.222E+01
RMM:  10    -0.116994200199E+04    0.45159E+00   -0.12576E+01  1584   0.405E+00    0.107E+01
RMM:  11    -0.116999557789E+04   -0.53576E-01   -0.30494E+00  1588   0.203E+00    0.770E+00
RMM:  12    -0.116887970173E+04    0.11159E+01   -0.20978E+00  1584   0.155E+00    0.331E+00
RMM:  13    -0.116887172201E+04    0.79797E-02   -0.40474E-01  1584   0.744E-01    0.300E+00
RMM:  14    -0.116876752418E+04    0.10420E+00   -0.14103E-01  1591   0.368E-01    0.148E+00
RMM:  15    -0.116877388421E+04   -0.63600E-02   -0.19987E-02  1635   0.142E-01    0.128E+00
RMM:  16    -0.116875613475E+04    0.17749E-01   -0.14425E-02  1585   0.122E-01    0.102E+00
RMM:  17    -0.116874886201E+04    0.72727E-02   -0.52123E-03  1591   0.698E-02    0.749E-01
RMM:  18    -0.116874114664E+04    0.77154E-02   -0.58901E-03  1573   0.661E-02    0.389E-01
RMM:  19    -0.116873756234E+04    0.35843E-02   -0.44637E-03  1536   0.541E-02    0.166E-01
RMM:  20    -0.116873724744E+04    0.31490E-03   -0.10024E-03  1316   0.263E-02    0.112E-01
RMM:  21    -0.116873715769E+04    0.89756E-04   -0.21357E-04  1101   0.146E-02
   1 F= -.11758479E+04 E0= -.11758479E+04  d E =-.117585E+04  mag=    -0.0044
       N       E                     dE             d eps       ncg     rms          rms(c)
DAV:   1    -0.116873302828E+04    0.42192E-02   -0.10682E+00  1584   0.171E+00    0.433E-01
RMM:   2    -0.116873652192E+04   -0.34936E-02   -0.40960E-02  1584   0.267E-01    0.443E-01
RMM:   3    -0.116873635149E+04    0.17043E-03   -0.23470E-03  1570   0.503E-02    0.434E-01
RMM:   4    -0.116873597958E+04    0.37191E-03   -0.36044E-04  1189   0.244E-02    0.347E-01
RMM:   5    -0.116873587867E+04    0.10091E-03   -0.31905E-03  1586   0.639E-02    0.824E-02
RMM:   6    -0.116873583954E+04    0.39128E-04   -0.10803E-04  1050   0.139E-02
   2 F= -.11758467E+04 E0= -.11758467E+04  d E =0.115586E-02  mag=    -0.0004
       N       E                     dE             d eps       ncg     rms          rms(c)
DAV:   1    -0.116873765492E+04   -0.17762E-02   -0.33461E-01  1728   0.954E-01    0.222E-01
RMM:   2    -0.116873858967E+04   -0.93475E-03   -0.11469E-02  1584   0.141E-01    0.238E-01
RMM:   3    -0.116873854059E+04    0.49074E-04   -0.56818E-04  1200   0.254E-02
   3 F= -.11758493E+04 E0= -.11758493E+04  d E =-.145411E-02  mag=    -0.0002
       N       E                     dE             d eps       ncg     rms          rms(c)
DAV:   1    -0.116873641003E+04    0.21796E-02   -0.38248E-01  1656   0.106E+00    0.329E-01
RMM:   2    -0.116873712553E+04   -0.71551E-03   -0.12600E-02  1596   0.172E-01    0.307E-01
RMM:   3    -0.116873646892E+04    0.65662E-03   -0.68668E-04  1435   0.362E-02    0.256E-01
RMM:   4    -0.116873575386E+04    0.71506E-03   -0.50149E-03  1588   0.836E-02    0.885E-02
RMM:   5    -0.116873561251E+04    0.14136E-03   -0.80864E-05  1031   0.137E-02    0.679E-02
RMM:   6    -0.116873555806E+04    0.54449E-04   -0.44818E-04  1281   0.215E-02
   4 F= -.11758460E+04 E0= -.11758460E+04  d E =0.330772E-02  mag=    -0.0000
       N       E                     dE             d eps       ncg     rms          rms(c)
DAV:   1    -0.116873855209E+04   -0.29396E-02   -0.23565E-01  1728   0.836E-01    0.152E-01
RMM:   2    -0.116873914604E+04   -0.59394E-03   -0.80054E-03  1596   0.136E-01    0.138E-01
RMM:   3    -0.116873900352E+04    0.14252E-03   -0.30325E-04  1162   0.248E-02    0.125E-01
RMM:   4    -0.116873862148E+04    0.38205E-03   -0.15458E-03  1576   0.474E-02    0.392E-02
RMM:   5    -0.116873860453E+04    0.16947E-04   -0.40710E-05  1000   0.973E-03
   5 F= -.11758493E+04 E0= -.11758493E+04  d E =0.746358E-05  mag=    -0.0000
