       N       E                     dE             d eps       ncg     rms          rms(c)
DAV:   1     0.469039011950E+04    0.46904E+04   -0.17278E+05  1872   0.909E+02
DAV:   2    -0.105865400751E+03   -0.47963E+04   -0.43742E+04  2520   0.207E+02
DAV:   3    -0.118643941130E+04   -0.10806E+04   -0.10738E+04  2124   0.107E+02
DAV:   4    -0.122890955061E+04   -0.42470E+02   -0.42254E+02  2016   0.276E+01
DAV:   5    -0.122998761292E+04   -0.10781E+01   -0.10760E+01  2376   0.409E+00    0.658E+01
RMM:   6    -0.121189532239E+04    0.18092E+02   -0.28994E+01  1584   0.532E+00    0.548E+01
RMM:   7    -0.119923492724E+04    0.12660E+02   -0.61048E+00  1584   0.271E+00    0.443E+01
RMM:   8    -0.118423722971E+04    0.14998E+02   -0.10783E+01  1584   0.375E+00    0.360E+01
RMM:   9    -0.116421930106E+04    0.20018E+02   -0.26492E+01  1584   0.591E+00    0.225E+01
RMM:  10    -0.116004953759E+04    0.41698E+01   -0.11391E+01  1584   0.387E+00    0.159E+01
RMM:  11    -0.116104533006E+04   -0.99579E+00   -0.80530E+00  1584   0.325E+00    0.820E+00
RMM:  12    -0.116102404511E+04    0.21285E-01   -0.40159E-01  1641   0.814E-01    0.590E+00
RMM:  13    -0.116054293348E+04    0.48111E+00   -0.27026E+00  1584   0.177E+00    0.227E+00
RMM:  14    -0.116046526519E+04    0.77668E-01   -0.13477E-01  1585   0.399E-01    0.137E+00
RMM:  15    -0.116044635473E+04    0.18910E-01   -0.20656E-02  1597   0.145E-01    0.564E-01
RMM:  16    -0.116044574785E+04    0.60689E-03   -0.84850E-03  1604   0.860E-02    0.297E-01
RMM:  17    -0.116044634638E+04   -0.59853E-03   -0.20930E-03  1486   0.481E-02    0.153E-01
RMM:  18    -0.116044645496E+04   -0.10858E-03   -0.56681E-04  1237   0.271E-02    0.106E-01
RMM:  19    -0.116044656970E+04   -0.11474E-03   -0.39007E-04  1125   0.226E-02    0.588E-02
RMM:  20    -0.116044658669E+04   -0.16989E-04   -0.10512E-04  1056   0.135E-02
   1 F= -.11675617E+04 E0= -.11675617E+04  d E =-.116756E+04  mag=     1.0016
       N       E                     dE             d eps       ncg     rms          rms(c)
DAV:   1    -0.116044513814E+04    0.14316E-02   -0.13541E+00  1728   0.140E+00    0.492E-01
RMM:   2    -0.116044762530E+04   -0.24872E-02   -0.30796E-02  1584   0.198E-01    0.403E-01
RMM:   3    -0.116044764145E+04   -0.16150E-04   -0.15682E-03  1583   0.447E-02    0.337E-01
RMM:   4    -0.116044735513E+04    0.28632E-03   -0.15455E-03  1574   0.433E-02    0.220E-01
RMM:   5    -0.116044738499E+04   -0.29856E-04   -0.63213E-04  1539   0.285E-02
   2 F= -.11675635E+04 E0= -.11675635E+04  d E =-.175158E-02  mag=     1.0001
       N       E                     dE             d eps       ncg     rms          rms(c)
DAV:   1    -0.116044834506E+04   -0.98992E-03   -0.15526E-01  1656   0.477E-01    0.162E-01
RMM:   2    -0.116044857353E+04   -0.22847E-03   -0.33542E-03  1580   0.669E-02    0.129E-01
RMM:   3    -0.116044850969E+04    0.63836E-04   -0.17211E-04  1045   0.159E-02
   3 F= -.11675643E+04 E0= -.11675643E+04  d E =-.255303E-02  mag=     1.0000
       N       E                     dE             d eps       ncg     rms          rms(c)
DAV:   1    -0.116044765770E+04    0.91583E-03   -0.60877E-01  1800   0.840E-01    0.323E-01
RMM:   2    -0.116044875280E+04   -0.10951E-02   -0.10775E-02  1584   0.106E-01    0.239E-01
RMM:   3    -0.116044900738E+04   -0.25458E-03   -0.49588E-04  1150   0.243E-02    0.179E-01
RMM:   4    -0.116044905770E+04   -0.50325E-04   -0.26600E-04  1055   0.187E-02
   4 F= -.11675654E+04 E0= -.11675654E+04  d E =-.116732E-02  mag=     1.0000
       N       E                     dE             d eps       ncg     rms          rms(c)
DAV:   1    -0.116044915867E+04   -0.15129E-03   -0.26138E-03  1800   0.619E-02    0.344E-02
RMM:   2    -0.116044917011E+04   -0.11439E-04   -0.67002E-05   975   0.111E-02
   5 F= -.11675655E+04 E0= -.11675655E+04  d E =-.124213E-02  mag=     1.0000
       N       E                     dE             d eps       ncg     rms          rms(c)
DAV:   1    -0.116044967199E+04   -0.51332E-03   -0.93184E-02  1764   0.435E-01    0.938E-02
RMM:   2    -0.116044977313E+04   -0.10114E-03   -0.16722E-03  1577   0.573E-02    0.789E-02
RMM:   3    -0.116044974779E+04    0.25337E-04   -0.62080E-05  1013   0.116E-02
   6 F= -.11675663E+04 E0= -.11675663E+04  d E =-.769837E-03  mag=     1.0000
       N       E                     dE             d eps       ncg     rms          rms(c)
DAV:   1    -0.116044958348E+04    0.18965E-03   -0.70024E-02  1728   0.376E-01    0.939E-02
RMM:   2    -0.116044963285E+04   -0.49368E-04   -0.11138E-03  1500   0.458E-02    0.819E-02
RMM:   3    -0.116044959971E+04    0.33143E-04   -0.56086E-05  1014   0.110E-02
   7 F= -.11675663E+04 E0= -.11675663E+04  d E =-.793107E-03  mag=     1.0000
