       N       E                     dE             d eps       ncg     rms          rms(c)
DAV:   1     0.464420798245E+04    0.46442E+04   -0.17827E+05  1888   0.944E+02
DAV:   2    -0.917804064348E+02   -0.47360E+04   -0.43273E+04  2400   0.212E+02
DAV:   3    -0.120040917209E+04   -0.11086E+04   -0.11005E+04  1984   0.110E+02
DAV:   4    -0.124756978401E+04   -0.47161E+02   -0.46869E+02  1920   0.299E+01
DAV:   5    -0.124878017577E+04   -0.12104E+01   -0.12075E+01  2304   0.450E+00    0.767E+01
RMM:   6    -0.122942366369E+04    0.19357E+02   -0.39014E+01  1619   0.667E+00    0.556E+01
RMM:   7    -0.121694376110E+04    0.12480E+02   -0.96953E+00  1543   0.415E+00    0.460E+01
RMM:   8    -0.119258536515E+04    0.24358E+02   -0.30087E+01  1639   0.693E+00    0.299E+01
RMM:   9    -0.117890937249E+04    0.13676E+02   -0.22080E+01  1546   0.630E+00    0.205E+01
RMM:  10    -0.117592204092E+04    0.29873E+01   -0.17757E+01  1550   0.562E+00    0.125E+01
RMM:  11    -0.117695281358E+04   -0.10308E+01   -0.41112E+00  1562   0.300E+00    0.716E+00
RMM:  12    -0.117679644151E+04    0.15637E+00   -0.45460E-01  1648   0.110E+00    0.507E+00
RMM:  13    -0.117631882765E+04    0.47761E+00   -0.12480E+00  1536   0.136E+00    0.149E+00
RMM:  14    -0.117633375443E+04   -0.14927E-01   -0.15288E-01  1542   0.619E-01    0.889E-01
RMM:  15    -0.117633585727E+04   -0.21028E-02   -0.27566E-02  1586   0.257E-01    0.323E-01
RMM:  16    -0.117633711975E+04   -0.12625E-02   -0.77631E-03  1631   0.131E-01    0.286E-01
RMM:  17    -0.117633670242E+04    0.41733E-03   -0.53982E-03  1555   0.826E-02    0.218E-01
RMM:  18    -0.117633697669E+04   -0.27428E-03   -0.14142E-03  1544   0.535E-02    0.111E-01
RMM:  19    -0.117633715806E+04   -0.18137E-03   -0.59463E-04  1560   0.367E-02    0.885E-02
RMM:  20    -0.117633716187E+04   -0.38105E-05   -0.16538E-04  1552   0.181E-02    0.507E-02
RMM:  21    -0.117633718373E+04   -0.21860E-04   -0.99653E-05  1585   0.133E-02    0.248E-02
RMM:  22    -0.117633718525E+04   -0.15147E-05   -0.21078E-05  1594   0.639E-03    0.176E-02
RMM:  23    -0.117633718733E+04   -0.20863E-05   -0.15887E-05  1513   0.447E-03    0.669E-03
RMM:  24    -0.117633718551E+04    0.18201E-05   -0.23518E-06  1091   0.214E-03    0.572E-03
RMM:  25    -0.117633718557E+04   -0.61285E-07   -0.11320E-06  1022   0.149E-03
   1 F= -.11834365E+04 E0= -.11834365E+04  d E =-.118344E+04  mag=     2.0002
       N       E                     dE             d eps       ncg     rms          rms(c)
DAV:   1    -0.117633331779E+04    0.38677E-02   -0.31395E-01  1856   0.125E+00    0.208E-01
RMM:   2    -0.117633516545E+04   -0.18477E-02   -0.20027E-02  1660   0.195E-01    0.159E-01
RMM:   3    -0.117633562491E+04   -0.45946E-03   -0.52584E-03  1789   0.812E-02    0.119E-01
RMM:   4    -0.117633560599E+04    0.18915E-04   -0.63951E-04  1908   0.324E-02    0.101E-01
RMM:   5    -0.117633551454E+04    0.91454E-04   -0.24207E-04  1604   0.199E-02    0.642E-02
RMM:   6    -0.117633548700E+04    0.27536E-04   -0.27753E-04  1566   0.212E-02    0.326E-02
RMM:   7    -0.117633549372E+04   -0.67175E-05   -0.38902E-05  1644   0.101E-02    0.177E-02
RMM:   8    -0.117633549546E+04   -0.17449E-05   -0.13034E-05  1584   0.514E-03    0.114E-02
RMM:   9    -0.117633549435E+04    0.11113E-05   -0.87000E-06  1509   0.387E-03    0.563E-03
RMM:  10    -0.117633549470E+04   -0.34857E-06   -0.40584E-06  1322   0.267E-03
   2 F= -.11834353E+04 E0= -.11834353E+04  d E =0.122888E-02  mag=     2.0000
       N       E                     dE             d eps       ncg     rms          rms(c)
DAV:   1    -0.117633656773E+04   -0.10734E-02   -0.14135E-01  1856   0.836E-01    0.140E-01
RMM:   2    -0.117633730272E+04   -0.73499E-03   -0.82439E-03  1647   0.126E-01    0.107E-01
RMM:   3    -0.117633748621E+04   -0.18349E-03   -0.21552E-03  1696   0.514E-02    0.794E-02
RMM:   4    -0.117633747597E+04    0.10241E-04   -0.26549E-04  1807   0.215E-02    0.666E-02
RMM:   5    -0.117633743569E+04    0.40274E-04   -0.12052E-04  1611   0.144E-02    0.410E-02
RMM:   6    -0.117633742620E+04    0.94945E-05   -0.11365E-04  1568   0.137E-02    0.213E-02
RMM:   7    -0.117633743006E+04   -0.38669E-05   -0.17015E-05  1600   0.661E-03    0.116E-02
RMM:   8    -0.117633743041E+04   -0.34482E-06   -0.60542E-06  1453   0.348E-03
   3 F= -.11834369E+04 E0= -.11834369E+04  d E =-.397604E-03  mag=     2.0000
