       N       E                     dE             d eps       ncg     rms          rms(c)
DAV:   1     0.610859376427E+04    0.61086E+04   -0.16648E+05  1772   0.996E+02
DAV:   2     0.685697318513E+03   -0.54229E+04   -0.48862E+04  2684   0.257E+02
DAV:   3    -0.111785963816E+04   -0.18036E+04   -0.17611E+04  2480   0.145E+02
DAV:   4    -0.125194203774E+04   -0.13408E+03   -0.13192E+03  2136   0.468E+01
DAV:   5    -0.125705200605E+04   -0.51100E+01   -0.50504E+01  2592   0.118E+01    0.805E+01
RMM:   6    -0.123834708838E+04    0.18705E+02   -0.98428E+00  1991   0.623E+00    0.603E+01
RMM:   7    -0.120403101333E+04    0.34316E+02   -0.94265E+01  2101   0.172E+01    0.326E+01
RMM:   8    -0.119642182422E+04    0.76092E+01   -0.18711E+01  2020   0.828E+00    0.278E+01
RMM:   9    -0.118901657339E+04    0.74053E+01   -0.10289E+01  1983   0.635E+00    0.229E+01
RMM:  10    -0.118622916902E+04    0.27874E+01   -0.16268E+01  1917   0.541E+00    0.145E+01
RMM:  11    -0.118768358041E+04   -0.14544E+01   -0.51429E+00  2059   0.414E+00    0.802E+00
RMM:  12    -0.118733238262E+04    0.35120E+00   -0.61688E-01  2013   0.131E+00    0.526E+00
RMM:  13    -0.118678706655E+04    0.54532E+00   -0.13777E+00  1950   0.159E+00    0.161E+00
RMM:  14    -0.118677579415E+04    0.11272E-01   -0.21267E-01  2026   0.797E-01    0.113E+00
RMM:  15    -0.118677434994E+04    0.14442E-02   -0.42912E-02  1969   0.349E-01    0.893E-01
RMM:  16    -0.118677124510E+04    0.31048E-02   -0.16091E-02  1646   0.378E-01    0.567E-01
RMM:  17    -0.118677079586E+04    0.44924E-03   -0.84317E-03  1368   0.363E-01
   1 F= -.11942086E+04 E0= -.11942086E+04  d E =-.119421E+04  mag=     0.0599
       N       E                     dE             d eps       ncg     rms          rms(c)
DAV:   1    -0.118677222807E+04   -0.98297E-03   -0.40562E-02  2224   0.687E-01    0.330E-01
RMM:   2    -0.118677220406E+04    0.24011E-04   -0.22677E-03  1049   0.795E-02
   2 F= -.11942099E+04 E0= -.11942099E+04  d E =-.127439E-02  mag=     0.0248
