       N       E                     dE             d eps       ncg     rms          rms(c)
DAV:   1     0.448183099444E+04    0.44818E+04   -0.17462E+05  1944   0.902E+02
DAV:   2    -0.140482903554E+03   -0.46223E+04   -0.41830E+04  2520   0.200E+02
DAV:   3    -0.119311578859E+04   -0.10526E+04   -0.10486E+04  2088   0.104E+02
DAV:   4    -0.123535905335E+04   -0.42243E+02   -0.42048E+02  2052   0.273E+01
DAV:   5    -0.123645060407E+04   -0.10916E+01   -0.10897E+01  2412   0.405E+00    0.680E+01
RMM:   6    -0.122330487027E+04    0.13146E+02   -0.93130E+00  1604   0.322E+00    0.538E+01
RMM:   7    -0.118882420733E+04    0.34481E+02   -0.82477E+01  1625   0.929E+00    0.811E+02
RMM:   8    -0.118952542326E+04   -0.70122E+00   -0.11605E+01  1806   0.201E+00    0.940E+02
RMM:   9    -0.118888976968E+04    0.63565E+00   -0.36845E-01  1864   0.561E-01    0.941E+02
RMM:  10    -0.118060167639E+04    0.82881E+01   -0.29367E+00  1604   0.184E+00    0.942E+02
RMM:  11    -0.117632414238E+04    0.42775E+01   -0.53760E+00  1586   0.259E+00    0.941E+02
RMM:  12    -0.117464190926E+04    0.16822E+01   -0.59319E+00  1584   0.276E+00    0.940E+02
RMM:  13    -0.117620577923E+04   -0.15639E+01   -0.50556E+00  1585   0.257E+00    0.942E+02
RMM:  14    -0.117449728596E+04    0.17085E+01   -0.29939E-01  1736   0.625E-01    0.941E+02
RMM:  15    -0.117444741545E+04    0.49871E-01   -0.24798E-02  1860   0.161E-01    0.941E+02
RMM:  16    -0.117426587151E+04    0.18154E+00   -0.97422E-03  1681   0.879E-02    0.939E+02
RMM:  17    -0.117450504600E+04   -0.23917E+00   -0.88784E-03  1626   0.805E-02    0.941E+02
RMM:  18    -0.117475578974E+04   -0.25074E+00   -0.15790E-02  1625   0.116E-01    0.943E+02
RMM:  19    -0.117523948765E+04   -0.48370E+00   -0.28202E-02  1648   0.130E-01    0.118E+03
RMM:  20    -0.117581808487E+04   -0.57860E+00   -0.30520E+00  1551   0.116E-01    0.133E+03
RMM:  21    -0.117570758802E+04    0.11050E+00   -0.67651E-02  1420   0.520E-02    0.133E+03
RMM:  22    -0.117563083480E+04    0.76753E-01   -0.34865E-02  1587   0.177E-01    0.133E+03
RMM:  23    -0.117528172207E+04    0.34911E+00   -0.83821E-03  1618   0.678E-02    0.133E+03
RMM:  24    -0.117565784807E+04   -0.37613E+00   -0.24783E-02  1639   0.137E-01    0.133E+03
RMM:  25    -0.117486367242E+04    0.79418E+00   -0.48601E-02  1643   0.200E-01    0.132E+03
RMM:  26    -0.117489469910E+04   -0.31027E-01   -0.17402E-02  1605   0.133E-01    0.132E+03
RMM:  27    -0.117481846853E+04    0.76231E-01   -0.92528E-02  1612   0.302E-01    0.132E+03
RMM:  28    -0.117483698812E+04   -0.18520E-01   -0.30451E-03  1534   0.690E-02    0.132E+03
RMM:  29    -0.117345346238E+04    0.13835E+01   -0.33365E-01  1625   0.545E-01    0.128E+03
RMM:  30    -0.117290483327E+04    0.54863E+00   -0.76751E-02  1636   0.245E-01    0.888E+02
RMM:  31    -0.115371765135E+04    0.19187E+02   -0.16767E+01  1592   0.340E+00    0.767E+02
RMM:  32    -0.115214687734E+04    0.15708E+01   -0.10455E+00  1807   0.683E-01    0.854E+02
RMM:  33    -0.114243640052E+04    0.97105E+01   -0.22723E+00  1586   0.140E+00    0.919E+02
RMM:  34    -0.114885546263E+04   -0.64191E+01   -0.51821E-01  1619   0.675E-01    0.778E+02
RMM:  35    -0.116067672986E+04   -0.11821E+02   -0.34121E+00  1598   0.150E+00    0.108E+02
RMM:  36    -0.116058176639E+04    0.94963E-01   -0.18936E-01  1664   0.375E-01    0.977E+01
RMM:  37    -0.116774632683E+04   -0.71646E+01   -0.19240E+00  1584   0.120E+00    0.767E+01
RMM:  38    -0.117111855917E+04   -0.33722E+01   -0.24212E+00  1599   0.119E+00    0.661E+01
RMM:  39    -0.117203888128E+04   -0.92032E+00   -0.20177E+00  1586   0.127E+00    0.599E+01
RMM:  40    -0.117156173975E+04    0.47714E+00   -0.33221E+00  1607   0.171E+00    0.209E+01
RMM:  41    -0.117116444533E+04    0.39729E+00   -0.11863E+00  1701   0.748E-01    0.169E+01
RMM:  42    -0.117080947129E+04    0.35497E+00   -0.34923E-01  1666   0.530E-01    0.151E+01
RMM:  43    -0.117182376428E+04   -0.10143E+01   -0.12977E+00  1586   0.122E+00    0.176E+01
RMM:  44    -0.117114481678E+04    0.67895E+00   -0.74333E-01  1669   0.853E-01    0.178E+01
RMM:  45    -0.116638158446E+04    0.47632E+01   -0.37337E+00  1628   0.173E+00    0.207E+01
RMM:  46    -0.116880356793E+04   -0.24220E+01   -0.61713E-01  1613   0.758E-01    0.174E+01
RMM:  47    -0.116914271281E+04   -0.33914E+00   -0.34466E-02  1687   0.161E-01    0.177E+01
RMM:  48    -0.116983372838E+04   -0.69102E+00   -0.10289E-01  1597   0.282E-01    0.172E+01
RMM:  49    -0.116961605576E+04    0.21767E+00   -0.17908E-02  1626   0.128E-01    0.182E+01
RMM:  50    -0.116747744770E+04    0.21386E+01   -0.56700E-01  1613   0.715E-01    0.182E+01
RMM:  51    -0.116950464176E+04   -0.20272E+01   -0.44012E-01  1618   0.652E-01    0.195E+01
RMM:  52    -0.116764217589E+04    0.18625E+01   -0.31335E-01  1621   0.518E-01    0.197E+01
RMM:  53    -0.116802770186E+04   -0.38553E+00   -0.42159E-02  1677   0.198E-01    0.192E+01
RMM:  54    -0.116754972610E+04    0.47798E+00   -0.32545E-02  1575   0.172E-01    0.195E+01
RMM:  55    -0.116756423136E+04   -0.14505E-01   -0.17540E-03  1393   0.380E-02    0.194E+01
RMM:  56    -0.114086197617E+04    0.26702E+02   -0.15046E+01  1617   0.318E+00    0.919E+02
RMM:  57    -0.113428853483E+04    0.65734E+01   -0.17955E+00  1602   0.108E+00    0.923E+02
RMM:  58    -0.116813101693E+04   -0.33842E+02   -0.16185E+01  1613   0.317E+00    0.125E+01
RMM:  59    -0.117181808459E+04   -0.36871E+01   -0.72887E+00  1609   0.197E+00    0.648E+00
RMM:  60    -0.117182071332E+04   -0.26287E-02   -0.35290E-01  1897   0.320E-01    0.641E+00
RMM:  61    -0.117183889539E+04   -0.18182E-01   -0.35370E-02  1656   0.169E-01    0.711E+00
RMM:  62    -0.117184386183E+04   -0.49664E-02   -0.65971E-03  1656   0.719E-02    0.724E+00
RMM:  63    -0.117181919315E+04    0.24669E-01   -0.18911E-03  1462   0.440E-02    0.691E+00
RMM:  64    -0.117182645183E+04   -0.72587E-02   -0.11810E-03  1327   0.291E-02    0.691E+00
RMM:  65    -0.117197283747E+04   -0.14639E+00   -0.35448E-01  1632   0.491E-01    0.750E+00
RMM:  66    -0.117236070646E+04   -0.38787E+00   -0.28687E-01  1659   0.391E-01    0.800E+00
RMM:  67    -0.117226851774E+04    0.92189E-01   -0.12630E-02  1703   0.108E-01    0.773E+00
RMM:  68    -0.117235385268E+04   -0.85335E-01   -0.39275E-02  1601   0.185E-01    0.820E+00
RMM:  69    -0.117235111648E+04    0.27362E-02   -0.29001E-02  1589   0.161E-01    0.794E+00
RMM:  70    -0.117218054432E+04    0.17057E+00   -0.92204E-02  1618   0.270E-01    0.665E+00
RMM:  71    -0.117188739907E+04    0.29315E+00   -0.36024E-01  1641   0.487E-01    0.403E+00
RMM:  72    -0.117192006244E+04   -0.32663E-01   -0.20427E-02  1730   0.134E-01    0.424E+00
RMM:  73    -0.117194981103E+04   -0.29749E-01   -0.61628E-03  1582   0.740E-02    0.439E+00
RMM:  74    -0.117197339920E+04   -0.23588E-01   -0.63015E-03  1593   0.756E-02    0.455E+00
RMM:  75    -0.117197610107E+04   -0.27019E-02   -0.69221E-04  1262   0.248E-02    0.455E+00
RMM:  76    -0.117197487286E+04    0.12282E-02   -0.41604E-02  1604   0.200E-01    0.496E+00
RMM:  77    -0.117196486348E+04    0.10009E-01   -0.10455E-02  1606   0.969E-02    0.551E+00
RMM:  78    -0.117196496013E+04   -0.96651E-04   -0.74060E-04  1314   0.247E-02
   1 F= -.11792417E+04 E0= -.11792416E+04  d E =-.117924E+04  mag=     1.1936
       N       E                     dE             d eps       ncg     rms          rms(c)
DAV:   1    -0.117194684477E+04    0.18019E-01   -0.36142E+00  1584   0.296E+00    0.562E+00
RMM:   2    -0.117191272611E+04    0.34119E-01   -0.17816E-01  1706   0.510E-01    0.404E+00
RMM:   3    -0.117190227996E+04    0.10446E-01   -0.44811E-02  1698   0.197E-01    0.235E+00
RMM:   4    -0.117189849068E+04    0.37893E-02   -0.31179E-02  1657   0.159E-01    0.153E+00
RMM:   5    -0.117189278605E+04    0.57046E-02   -0.86931E-03  1635   0.853E-02    0.107E+00
RMM:   6    -0.117189376144E+04   -0.97539E-03   -0.46075E-03  1611   0.701E-02    0.597E-01
RMM:   7    -0.117189295169E+04    0.80974E-03   -0.12889E-03  1430   0.321E-02    0.296E-01
RMM:   8    -0.117189283985E+04    0.11184E-03   -0.28206E-04  1173   0.179E-02    0.199E-01
RMM:   9    -0.117189280340E+04    0.36456E-04   -0.61943E-04  1338   0.250E-02
   2 F= -.11791692E+04 E0= -.11791691E+04  d E =0.724555E-01  mag=     0.9995
       N       E                     dE             d eps       ncg     rms          rms(c)
DAV:   1    -0.117193152417E+04   -0.38684E-01   -0.20111E+00  1800   0.220E+00    0.727E-01
RMM:   2    -0.117193601749E+04   -0.44933E-02   -0.73388E-02  1692   0.357E-01    0.463E-01
RMM:   3    -0.117193442680E+04    0.15907E-02   -0.42173E-03  1782   0.763E-02    0.394E-01
RMM:   4    -0.117193157571E+04    0.28511E-02   -0.11287E-02  1585   0.113E-01    0.185E-01
RMM:   5    -0.117193152173E+04    0.53973E-04   -0.34446E-04  1242   0.241E-02
   3 F= -.11792081E+04 E0= -.11792081E+04  d E =0.335319E-01  mag=     0.9995
       N       E                     dE             d eps       ncg     rms          rms(c)
DAV:   1    -0.117193331383E+04   -0.17381E-02   -0.46644E-02  1800   0.336E-01    0.169E-01
RMM:   2    -0.117193341206E+04   -0.98230E-04   -0.20349E-03  1640   0.624E-02    0.142E-01
RMM:   3    -0.117193329439E+04    0.11767E-03   -0.14191E-04  1102   0.157E-02    0.115E-01
RMM:   4    -0.117193319834E+04    0.96048E-04   -0.60051E-04  1389   0.265E-02
   4 F= -.11792098E+04 E0= -.11792098E+04  d E =0.318177E-01  mag=     0.9995
       N       E                     dE             d eps       ncg     rms          rms(c)
DAV:   1    -0.117192969810E+04    0.35963E-02   -0.88832E-01  1656   0.147E+00    0.500E-01
RMM:   2    -0.117193143361E+04   -0.17355E-02   -0.30213E-02  1659   0.237E-01    0.375E-01
RMM:   3    -0.117193047860E+04    0.95501E-03   -0.17248E-03  1696   0.513E-02    0.322E-01
RMM:   4    -0.117192900671E+04    0.14719E-02   -0.48764E-03  1584   0.757E-02    0.156E-01
RMM:   5    -0.117192895851E+04    0.48204E-04   -0.22298E-04  1132   0.199E-02
   5 F= -.11792055E+04 E0= -.11792055E+04  d E =0.433167E-02  mag=     0.9996
       N       E                     dE             d eps       ncg     rms          rms(c)
DAV:   1    -0.117193497302E+04   -0.59663E-02   -0.39080E-01  1728   0.977E-01    0.311E-01
RMM:   2    -0.117193568346E+04   -0.71044E-03   -0.13024E-02  1660   0.154E-01    0.224E-01
RMM:   3    -0.117193524928E+04    0.43418E-03   -0.72856E-04  1433   0.341E-02    0.185E-01
RMM:   4    -0.117193462909E+04    0.62019E-03   -0.17410E-03  1574   0.456E-02    0.879E-02
RMM:   5    -0.117193460769E+04    0.21402E-04   -0.10286E-04  1057   0.136E-02
   6 F= -.11792112E+04 E0= -.11792112E+04  d E =-.137283E-02  mag=     0.9996
