       N       E                     dE             d eps       ncg     rms          rms(c)
DAV:   1     0.511819525546E+04    0.51182E+04   -0.16680E+05  1728   0.929E+02
DAV:   2     0.215490975641E+02   -0.50966E+04   -0.46309E+04  2432   0.217E+02
DAV:   3    -0.117981011076E+04   -0.12014E+04   -0.11861E+04  2048   0.116E+02
DAV:   4    -0.123227433734E+04   -0.52464E+02   -0.52151E+02  2016   0.325E+01
DAV:   5    -0.123369113926E+04   -0.14168E+01   -0.14130E+01  2336   0.510E+00    0.763E+01
RMM:   6    -0.124082017318E+04   -0.71290E+01   -0.98373E+01  1657   0.134E+01    0.835E+01
RMM:   7    -0.121964738754E+04    0.21173E+02   -0.16370E+01  1541   0.569E+00    0.660E+01
RMM:   8    -0.119962050432E+04    0.20027E+02   -0.17671E+01  1584   0.500E+00    0.590E+01
RMM:   9    -0.116542692509E+04    0.34194E+02   -0.55516E+01  1737   0.978E+00    0.263E+01
RMM:  10    -0.116552502396E+04   -0.98099E-01   -0.28680E+00  1602   0.308E+00    0.236E+01
RMM:  11    -0.116328596832E+04    0.22391E+01   -0.21632E+01  1807   0.575E+00    0.112E+01
RMM:  12    -0.116276364606E+04    0.52232E+00   -0.12563E+00  1697   0.190E+00    0.840E+00
RMM:  13    -0.116222038177E+04    0.54326E+00   -0.64318E-01  1590   0.116E+00    0.557E+00
RMM:  14    -0.116203507736E+04    0.18530E+00   -0.51378E-01  1557   0.960E-01    0.337E+00
RMM:  15    -0.116198060199E+04    0.54475E-01   -0.18414E-01  1649   0.598E-01    0.239E+00
RMM:  16    -0.116194826911E+04    0.32333E-01   -0.33305E-02  1709   0.261E-01    0.149E+00
RMM:  17    -0.116194911042E+04   -0.84131E-03   -0.57526E-03  1790   0.105E-01    0.146E+00
RMM:  18    -0.116194704489E+04    0.20655E-02   -0.12549E-03  1939   0.405E-02    0.121E+00
RMM:  19    -0.116195898733E+04   -0.11942E-01   -0.17209E-03  1609   0.459E-02    0.173E+00
RMM:  20    -0.116198868877E+04   -0.29701E-01   -0.23084E-02  2031   0.206E-01    0.328E+00
RMM:  21    -0.116199492288E+04   -0.62341E-02   -0.11701E-03  1847   0.603E-02    0.387E+00
RMM:  22    -0.116199248310E+04    0.24398E-02   -0.24947E-04  1772   0.252E-02    0.380E+00
RMM:  23    -0.116199075257E+04    0.17305E-02   -0.70726E-05  1727   0.117E-02    0.372E+00
RMM:  24    -0.116196562912E+04    0.25123E-01   -0.17039E-03  1951   0.566E-02    0.278E+00
RMM:  25    -0.116198880487E+04   -0.23176E-01   -0.83407E-04  1673   0.406E-02    0.367E+00
RMM:  26    -0.116201976456E+04   -0.30960E-01   -0.30838E-03  2107   0.742E-02    0.449E+00
RMM:  27    -0.116201811781E+04    0.16468E-02   -0.77084E-03  2328   0.101E-01    0.442E+00
RMM:  28    -0.116199708803E+04    0.21030E-01   -0.33857E-03  2018   0.629E-02    0.391E+00
RMM:  29    -0.116197982984E+04    0.17258E-01   -0.19671E-03  1830   0.517E-02    0.287E+00
RMM:  30    -0.116196905423E+04    0.10776E-01   -0.81812E-04  1757   0.339E-02    0.166E+00
RMM:  31    -0.116196781388E+04    0.12404E-02   -0.36823E-04  1717   0.290E-02    0.157E+00
RMM:  32    -0.116196904684E+04   -0.12330E-02   -0.11295E-03  1915   0.428E-02    0.407E-01
RMM:  33    -0.116196916777E+04   -0.12093E-03   -0.46172E-04  1773   0.323E-02    0.420E-01
RMM:  34    -0.116196763469E+04    0.15331E-02   -0.41967E-04  1823   0.276E-02    0.311E-01
RMM:  35    -0.116196835217E+04   -0.71748E-03   -0.28390E-04  1756   0.226E-02    0.175E-01
RMM:  36    -0.116196906004E+04   -0.70787E-03   -0.21246E-04  1785   0.199E-02    0.244E-01
RMM:  37    -0.116196896782E+04    0.92220E-04   -0.12812E-04  1716   0.158E-02    0.313E-01
RMM:  38    -0.116196899609E+04   -0.28274E-04   -0.66920E-05  1678   0.101E-02    0.163E-01
RMM:  39    -0.116196905718E+04   -0.61088E-04   -0.10328E-05  1319   0.460E-03    0.119E-01
RMM:  40    -0.116196908660E+04   -0.29417E-04   -0.70808E-06  1119   0.384E-03    0.479E-02
RMM:  41    -0.116196909668E+04   -0.10083E-04   -0.33944E-06  1091   0.248E-03    0.246E-02
RMM:  42    -0.116196909649E+04    0.19201E-06   -0.18649E-06  1036   0.197E-03
   1 F= -.11619691E+04 E0= -.11619485E+04  d E =-.116197E+04  mag=    -0.3793
       N       E                     dE             d eps       ncg     rms          rms(c)
DAV:   1    -0.116191406414E+04    0.55033E-01   -0.98518E+00  1632   0.481E+00    0.216E+00
RMM:   2    -0.116215023989E+04   -0.23618E+00   -0.44080E-01  1638   0.998E-01    0.805E+00
RMM:   3    -0.116197671086E+04    0.17353E+00   -0.10437E-01  1729   0.467E-01    0.650E+00
RMM:   4    -0.116192168627E+04    0.55025E-01   -0.21932E-02  1902   0.176E-01    0.286E+00
RMM:   5    -0.116193946018E+04   -0.17774E-01   -0.37307E-03  1808   0.803E-02    0.277E+00
RMM:   6    -0.116193594553E+04    0.35147E-02   -0.98354E-04  1740   0.390E-02    0.115E+00
RMM:   7    -0.116195743813E+04   -0.21493E-01   -0.55069E-03  1572   0.913E-02    0.542E+00
RMM:   8    -0.116192789808E+04    0.29540E-01   -0.33764E-02  1855   0.200E-01    0.255E+00
RMM:   9    -0.116192003399E+04    0.78641E-02   -0.51205E-03  1763   0.953E-02    0.752E-01
RMM:  10    -0.116192521628E+04   -0.51823E-02   -0.20795E-03  1711   0.604E-02    0.689E-01
RMM:  11    -0.116192586129E+04   -0.64501E-03   -0.39074E-04  1956   0.277E-02    0.687E-01
RMM:  12    -0.116192881534E+04   -0.29541E-02   -0.44008E-03  1974   0.704E-02    0.781E-01
RMM:  13    -0.116192493491E+04    0.38804E-02   -0.59225E-03  2033   0.845E-02    0.612E-01
RMM:  14    -0.116192549138E+04   -0.55647E-03   -0.36991E-02  2488   0.204E-01    0.630E-01
RMM:  15    -0.116192630882E+04   -0.81745E-03   -0.16346E-03  1866   0.520E-02    0.589E-01
RMM:  16    -0.116192542593E+04    0.88290E-03   -0.19012E-03  1835   0.544E-02    0.480E-01
RMM:  17    -0.116192403147E+04    0.13945E-02   -0.14685E-03  1805   0.443E-02    0.326E-01
RMM:  18    -0.116192364780E+04    0.38366E-03   -0.60319E-04  1833   0.303E-02    0.216E-01
RMM:  19    -0.116192378178E+04   -0.13398E-03   -0.32852E-04  1826   0.212E-02    0.137E-01
RMM:  20    -0.116192398935E+04   -0.20757E-03   -0.55840E-05  1753   0.101E-02    0.128E-01
RMM:  21    -0.116192407236E+04   -0.83012E-04   -0.37011E-05  1577   0.760E-03    0.121E-01
RMM:  22    -0.116192409113E+04   -0.18772E-04   -0.15610E-05  1495   0.483E-03    0.113E-01
RMM:  23    -0.116192401734E+04    0.73788E-04   -0.23170E-05  1311   0.540E-03    0.121E-01
RMM:  24    -0.116192376783E+04    0.24951E-03   -0.18666E-04  1833   0.127E-02    0.138E-01
RMM:  25    -0.116192373260E+04    0.35227E-04   -0.48039E-05  1699   0.765E-03    0.126E-01
RMM:  26    -0.116192369267E+04    0.39926E-04   -0.13442E-04  2290   0.130E-02    0.644E-02
RMM:  27    -0.116192365285E+04    0.39824E-04   -0.16478E-04  2241   0.141E-02    0.655E-02
RMM:  28    -0.116192366945E+04   -0.16600E-04   -0.11136E-05  1491   0.467E-03    0.280E-02
RMM:  29    -0.116192368035E+04   -0.10904E-04   -0.10314E-05  1357   0.426E-03    0.225E-02
RMM:  30    -0.116192368126E+04   -0.90257E-06   -0.23707E-05  1420   0.552E-03    0.587E-02
RMM:  31    -0.116192369107E+04   -0.98174E-05   -0.52845E-06  1152   0.318E-03    0.495E-02
RMM:  32    -0.116192369004E+04    0.10373E-05   -0.16462E-06  1047   0.196E-03    0.443E-02
RMM:  33    -0.116192368859E+04    0.14437E-05   -0.19438E-06  1069   0.181E-03    0.479E-02
RMM:  34    -0.116192368677E+04    0.18207E-05   -0.20953E-06  1097   0.186E-03    0.362E-02
RMM:  35    -0.116192368701E+04   -0.24000E-06   -0.14404E-06  1043   0.189E-03
   2 F= -.11619237E+04 E0= -.11619075E+04  d E =0.454095E-01  mag=    -0.5788
       N       E                     dE             d eps       ncg     rms          rms(c)
DAV:   1    -0.116198546910E+04   -0.61782E-01   -0.52118E+00  1696   0.345E+00    0.304E+00
RMM:   2    -0.116220954122E+04   -0.22407E+00   -0.35647E-01  1567   0.799E-01    0.418E+00
RMM:   3    -0.116202181140E+04    0.18773E+00   -0.93192E-02  1643   0.416E-01    0.241E+00
RMM:   4    -0.116200966199E+04    0.12149E-01   -0.46420E-02  1750   0.206E-01    0.371E+00
RMM:   5    -0.116200329041E+04    0.63716E-02   -0.44499E-03  1821   0.774E-02    0.333E+00
RMM:   6    -0.116200212851E+04    0.11619E-02   -0.10449E-03  1770   0.371E-02    0.340E+00
RMM:   7    -0.116200969329E+04   -0.75648E-02   -0.10932E-02  1711   0.121E-01    0.359E+00
RMM:   8    -0.116200264538E+04    0.70479E-02   -0.54391E-03  1674   0.836E-02    0.327E+00
RMM:   9    -0.116200316596E+04   -0.52058E-03   -0.84015E-04  1924   0.400E-02    0.342E+00
RMM:  10    -0.116200077151E+04    0.23945E-02   -0.60036E-04  1643   0.262E-02    0.347E+00
RMM:  11    -0.116198675475E+04    0.14017E-01   -0.42330E-03  1841   0.626E-02    0.104E+00
RMM:  12    -0.116199000982E+04   -0.32551E-02   -0.11843E-03  1722   0.408E-02    0.637E-01
RMM:  13    -0.116199112940E+04   -0.11196E-02   -0.58565E-04  1843   0.275E-02    0.680E-01
RMM:  14    -0.116199109992E+04    0.29478E-04   -0.97505E-05  1685   0.107E-02    0.576E-01
RMM:  15    -0.116199099450E+04    0.10542E-03   -0.37036E-05  1370   0.675E-03    0.619E-01
RMM:  16    -0.116199038473E+04    0.60977E-03   -0.12450E-04  1612   0.105E-02    0.452E-01
RMM:  17    -0.116199017328E+04    0.21145E-03   -0.11588E-04  1719   0.108E-02    0.166E-01
RMM:  18    -0.116199037217E+04   -0.19889E-03   -0.98162E-05  1891   0.123E-02    0.604E-02
RMM:  19    -0.116199049355E+04   -0.12138E-03   -0.26762E-05  1648   0.793E-03    0.303E-02
RMM:  20    -0.116199048704E+04    0.65163E-05   -0.22527E-05  1658   0.679E-03    0.575E-02
RMM:  21    -0.116199049409E+04   -0.70482E-05   -0.12183E-05  1550   0.507E-03    0.533E-02
RMM:  22    -0.116199049327E+04    0.81512E-06   -0.15057E-05  1587   0.529E-03    0.130E-02
RMM:  23    -0.116199050952E+04   -0.16253E-04   -0.43076E-06  1253   0.341E-03    0.379E-02
RMM:  24    -0.116199050741E+04    0.21190E-05   -0.51387E-06  1229   0.355E-03    0.375E-02
RMM:  25    -0.116199050830E+04   -0.89793E-06   -0.47293E-06  1244   0.326E-03
   3 F= -.11619905E+04 E0= -.11619692E+04  d E =-.214118E-01  mag=    -0.2833
       N       E                     dE             d eps       ncg     rms          rms(c)
DAV:   1    -0.116199124306E+04   -0.73565E-03   -0.37648E-02  1728   0.295E-01    0.348E-01
RMM:   2    -0.116200135517E+04   -0.10112E-01   -0.37275E-03  1569   0.728E-02    0.204E+00
RMM:   3    -0.116198996536E+04    0.11390E-01   -0.19032E-03  1632   0.528E-02    0.160E-01
RMM:   4    -0.116199109766E+04   -0.11323E-02   -0.15393E-04  1716   0.164E-02    0.121E-01
RMM:   5    -0.116199110480E+04   -0.71419E-05   -0.29888E-05  1409   0.669E-03    0.849E-02
RMM:   6    -0.116199110097E+04    0.38295E-05   -0.50171E-05  1537   0.907E-03    0.472E-02
RMM:   7    -0.116199113169E+04   -0.30720E-04   -0.11472E-04  1575   0.125E-02    0.273E-02
RMM:   8    -0.116199113805E+04   -0.63583E-05   -0.13829E-05  1533   0.573E-03    0.287E-02
RMM:   9    -0.116199110171E+04    0.36339E-04   -0.23379E-05  1544   0.556E-03    0.319E-02
RMM:  10    -0.116199112782E+04   -0.26113E-04   -0.36651E-06  1143   0.313E-03    0.336E-02
RMM:  11    -0.116199111251E+04    0.15311E-04   -0.12334E-05  1461   0.447E-03    0.287E-02
RMM:  12    -0.116199111967E+04   -0.71577E-05   -0.15151E-05  1580   0.462E-03    0.138E-02
RMM:  13    -0.116199112306E+04   -0.33906E-05   -0.16797E-06  1032   0.261E-03    0.108E-02
RMM:  14    -0.116199112526E+04   -0.21969E-05   -0.38161E-06  1209   0.274E-03    0.212E-02
RMM:  15    -0.116199112563E+04   -0.37218E-06   -0.27095E-06  1104   0.262E-03
   4 F= -.11619911E+04 E0= -.11619695E+04  d E =-.220291E-01  mag=    -0.2414
       N       E                     dE             d eps       ncg     rms          rms(c)
DAV:   1    -0.116199118097E+04   -0.55710E-04   -0.37457E-03  1696   0.930E-02    0.122E-01
RMM:   2    -0.116199253834E+04   -0.13574E-02   -0.43719E-04  1568   0.241E-02    0.843E-01
RMM:   3    -0.116199090127E+04    0.16371E-02   -0.25157E-04  1581   0.191E-02    0.681E-02
RMM:   4    -0.116199115630E+04   -0.25504E-03   -0.21453E-05  1359   0.629E-03    0.549E-02
RMM:   5    -0.116199115481E+04    0.14913E-05   -0.51841E-06  1109   0.317E-03    0.385E-02
RMM:   6    -0.116199116121E+04   -0.64008E-05   -0.49807E-06  1272   0.303E-03    0.289E-02
RMM:   7    -0.116199116531E+04   -0.40975E-05   -0.12600E-05  1454   0.436E-03    0.129E-02
RMM:   8    -0.116199116925E+04   -0.39411E-05   -0.16532E-06  1035   0.220E-03    0.150E-02
RMM:   9    -0.116199116868E+04    0.57384E-06   -0.39165E-07   991   0.122E-03
   5 F= -.11619912E+04 E0= -.11619695E+04  d E =-.220722E-01  mag=    -0.2314
       N       E                     dE             d eps       ncg     rms          rms(c)
DAV:   1    -0.116199031134E+04    0.85792E-03   -0.55032E-01  1728   0.120E+00    0.375E-01
RMM:   2    -0.116200132986E+04   -0.11019E-01   -0.14060E-02  1544   0.224E-01    0.211E+00
RMM:   3    -0.116199009580E+04    0.11234E-01   -0.46733E-03  1682   0.103E-01    0.247E-01
RMM:   4    -0.116199141359E+04   -0.13178E-02   -0.73886E-04  1893   0.379E-02    0.286E-01
RMM:   5    -0.116199134032E+04    0.73271E-04   -0.84528E-05  1784   0.120E-02    0.204E-01
RMM:   6    -0.116199142522E+04   -0.84907E-04   -0.17795E-05  1351   0.530E-03    0.206E-01
RMM:   7    -0.116199127728E+04    0.14794E-03   -0.47420E-04  1807   0.254E-02    0.184E-01
RMM:   8    -0.116199167186E+04   -0.39457E-03   -0.23281E-03  2321   0.563E-02    0.302E-01
RMM:   9    -0.116199140725E+04    0.26461E-03   -0.66907E-04  1923   0.282E-02    0.172E-01
RMM:  10    -0.116199167140E+04   -0.26415E-03   -0.72813E-05  1700   0.119E-02    0.184E-01
RMM:  11    -0.116199162288E+04    0.48514E-04   -0.32313E-05  1652   0.774E-03    0.195E-01
RMM:  12    -0.116199146889E+04    0.15400E-03   -0.21667E-05  1496   0.595E-03    0.195E-01
RMM:  13    -0.116199124080E+04    0.22809E-03   -0.41642E-04  2317   0.224E-02    0.120E-01
RMM:  14    -0.116199135163E+04   -0.11083E-03   -0.16395E-05  1475   0.523E-03    0.111E-01
RMM:  15    -0.116199122170E+04    0.12993E-03   -0.16487E-04  2009   0.143E-02    0.139E-01
RMM:  16    -0.116199113912E+04    0.82574E-04   -0.10278E-04  1976   0.124E-02    0.794E-02
RMM:  17    -0.116199109261E+04    0.46512E-04   -0.18897E-04  2317   0.166E-02    0.494E-02
RMM:  18    -0.116199109431E+04   -0.16998E-05   -0.80087E-06  1448   0.372E-03    0.218E-02
RMM:  19    -0.116199109519E+04   -0.88254E-06   -0.25274E-05  1719   0.601E-03    0.202E-02
RMM:  20    -0.116199109462E+04    0.57158E-06   -0.32118E-06  1171   0.318E-03
   6 F= -.11619911E+04 E0= -.11619692E+04  d E =0.740574E-04  mag=    -0.1938
       N       E                     dE             d eps       ncg     rms          rms(c)
DAV:   1    -0.116199192412E+04   -0.82893E-03   -0.14156E-01  1728   0.606E-01    0.167E-01
RMM:   2    -0.116199417705E+04   -0.22529E-02   -0.33871E-03  1546   0.111E-01    0.108E+00
RMM:   3    -0.116199175173E+04    0.24253E-02   -0.10981E-03  1697   0.512E-02    0.102E-01
RMM:   4    -0.116199220712E+04   -0.45539E-03   -0.19375E-04  1865   0.194E-02    0.121E-01
RMM:   5    -0.116199221156E+04   -0.44411E-05   -0.24770E-05  1474   0.608E-03    0.111E-01
RMM:   6    -0.116199220186E+04    0.97047E-05   -0.47266E-06  1206   0.315E-03    0.967E-02
RMM:   7    -0.116199220967E+04   -0.78093E-05   -0.76429E-04  2364   0.319E-02    0.792E-02
RMM:   8    -0.116199219887E+04    0.10802E-04   -0.10538E-05  1554   0.526E-03    0.685E-02
RMM:   9    -0.116199216029E+04    0.38573E-04   -0.84475E-05  1896   0.956E-03    0.261E-02
RMM:  10    -0.116199216760E+04   -0.73027E-05   -0.35133E-06  1208   0.340E-03    0.247E-02
RMM:  11    -0.116199217044E+04   -0.28416E-05   -0.86880E-06  1417   0.374E-03    0.182E-02
RMM:  12    -0.116199217015E+04    0.28566E-06   -0.12196E-06  1024   0.225E-03
   7 F= -.11619922E+04 E0= -.11619702E+04  d E =-.100147E-02  mag=    -0.1845
       N       E                     dE             d eps       ncg     rms          rms(c)
DAV:   1    -0.116199252047E+04   -0.35003E-03   -0.21184E-01  1632   0.769E-01    0.997E-02
RMM:   2    -0.116199280810E+04   -0.28764E-03   -0.29440E-03  1542   0.105E-01    0.192E-01
RMM:   3    -0.116199283838E+04   -0.30275E-04   -0.92910E-04  1732   0.471E-02    0.119E-01
RMM:   4    -0.116199287010E+04   -0.31723E-04   -0.17369E-04  1931   0.191E-02    0.181E-01
RMM:   5    -0.116199279624E+04    0.73857E-04   -0.17204E-05  1498   0.595E-03    0.102E-01
RMM:   6    -0.116199281327E+04   -0.17028E-04   -0.96537E-06  1460   0.424E-03    0.948E-02
RMM:   7    -0.116199282821E+04   -0.14941E-04   -0.61024E-04  2371   0.272E-02    0.733E-02
RMM:   8    -0.116199287227E+04   -0.44056E-04   -0.17717E-05  1546   0.571E-03    0.503E-02
RMM:   9    -0.116199288828E+04   -0.16011E-04   -0.61735E-06  1231   0.318E-03    0.501E-02
RMM:  10    -0.116199274219E+04    0.14609E-03   -0.73990E-05  1937   0.838E-03    0.337E-02
RMM:  11    -0.116199272904E+04    0.13142E-04   -0.28187E-05  1478   0.530E-03    0.268E-02
RMM:  12    -0.116199279232E+04   -0.63280E-04   -0.13990E-05  1502   0.443E-03    0.346E-02
RMM:  13    -0.116199279775E+04   -0.54233E-05   -0.16164E-06  1036   0.217E-03    0.316E-02
RMM:  14    -0.116199279558E+04    0.21645E-05   -0.31264E-07  1002   0.120E-03    0.355E-02
RMM:  15    -0.116199276378E+04    0.31803E-04   -0.79244E-05  2157   0.893E-03    0.222E-02
RMM:  16    -0.116199274466E+04    0.19120E-04   -0.15687E-05  1251   0.409E-03    0.435E-02
RMM:  17    -0.116199274474E+04   -0.78689E-07   -0.16104E-05  1596   0.433E-03    0.208E-02
RMM:  18    -0.116199274595E+04   -0.12086E-05   -0.38272E-06  1187   0.350E-03    0.594E-03
RMM:  19    -0.116199274698E+04   -0.10288E-05   -0.11997E-06  1002   0.186E-03    0.427E-03
RMM:  20    -0.116199274729E+04   -0.31626E-06   -0.10964E-06   981   0.181E-03
   8 F= -.11619927E+04 E0= -.11619708E+04  d E =-.577142E-03  mag=    -0.1784
       N       E                     dE             d eps       ncg     rms          rms(c)
DAV:   1    -0.116199280211E+04   -0.55137E-04   -0.12848E-02  1664   0.189E-01    0.244E-02
RMM:   2    -0.116199281849E+04   -0.16378E-04   -0.17953E-04  1546   0.261E-02    0.451E-02
RMM:   3    -0.116199281814E+04    0.35221E-06   -0.57289E-05  1715   0.118E-02    0.303E-02
RMM:   4    -0.116199282162E+04   -0.34754E-05   -0.10230E-05  1404   0.493E-03    0.456E-02
RMM:   5    -0.116199281213E+04    0.94808E-05   -0.11486E-06  1035   0.205E-03    0.254E-02
RMM:   6    -0.116199281779E+04   -0.56594E-05   -0.68218E-07  1015   0.137E-03    0.229E-02
RMM:   7    -0.116199281800E+04   -0.20901E-06   -0.36803E-05  1835   0.682E-03    0.172E-02
RMM:   8    -0.116199281709E+04    0.90848E-06   -0.11363E-06  1029   0.226E-03
   9 F= -.11619928E+04 E0= -.11619708E+04  d E =-.646944E-03  mag=    -0.1754
