       N       E                     dE             d eps       ncg     rms          rms(c)
DAV:   1     0.514154534819E+04    0.51415E+04   -0.16611E+05  1764   0.903E+02
DAV:   2     0.261736882518E+02   -0.51154E+04   -0.46359E+04  2520   0.216E+02
DAV:   3    -0.117090980760E+04   -0.11971E+04   -0.11891E+04  2160   0.115E+02
DAV:   4    -0.122588779721E+04   -0.54978E+02   -0.54638E+02  2052   0.333E+01
DAV:   5    -0.122810721344E+04   -0.22194E+01   -0.22146E+01  2520   0.632E+00    0.596E+01
RMM:   6    -0.121509350031E+04    0.13014E+02   -0.59258E+00  1806   0.319E+00    0.484E+01
RMM:   7    -0.117609447913E+04    0.38999E+02   -0.51022E+01  1948   0.942E+00    0.290E+01
RMM:   8    -0.116594754658E+04    0.10147E+02   -0.34729E+01  2051   0.945E+00    0.167E+01
RMM:   9    -0.116462782177E+04    0.13197E+01   -0.10805E+01  1988   0.516E+00    0.112E+01
RMM:  10    -0.116465397103E+04   -0.26149E-01   -0.19815E+00  2004   0.292E+00    0.839E+00
RMM:  11    -0.116455927406E+04    0.94697E-01   -0.92740E-01  2071   0.133E+00    0.558E+00
RMM:  12    -0.116409704545E+04    0.46223E+00   -0.70628E-01  1924   0.104E+00    0.214E+00
RMM:  13    -0.116404179856E+04    0.55247E-01   -0.24804E-01  1891   0.100E+00    0.960E-01
RMM:  14    -0.116406169661E+04   -0.19898E-01   -0.85775E-02  1985   0.605E-01    0.455E-01
RMM:  15    -0.116406477876E+04   -0.30821E-02   -0.16296E-02  2031   0.200E-01    0.281E-01
RMM:  16    -0.116406459983E+04    0.17893E-03   -0.51692E-03  1981   0.856E-02    0.172E-01
RMM:  17    -0.116406487510E+04   -0.27527E-03   -0.83550E-04  1608   0.466E-02    0.123E-01
RMM:  18    -0.116406510262E+04   -0.22752E-03   -0.46752E-04  1308   0.491E-02    0.677E-02
RMM:  19    -0.116406514872E+04   -0.46101E-04   -0.23453E-04  1172   0.346E-02
   1 F= -.11716948E+04 E0= -.11716948E+04  d E =-.117169E+04  mag=    -1.0004
       N       E                     dE             d eps       ncg     rms          rms(c)
DAV:   1    -0.116406377042E+04    0.13322E-02   -0.39123E-01  1836   0.103E+00    0.181E-01
RMM:   2    -0.116406464425E+04   -0.87383E-03   -0.12838E-02  1978   0.172E-01    0.168E-01
RMM:   3    -0.116406444481E+04    0.19944E-03   -0.84171E-04  1530   0.777E-02    0.151E-01
RMM:   4    -0.116406372264E+04    0.72218E-03   -0.31873E-03  2017   0.873E-02    0.551E-02
RMM:   5    -0.116406372097E+04    0.16639E-05   -0.15849E-04  1101   0.336E-02
   2 F= -.11716938E+04 E0= -.11716938E+04  d E =0.102956E-02  mag=    -1.0001
       N       E                     dE             d eps       ncg     rms          rms(c)
DAV:   1    -0.116406590117E+04   -0.21785E-02   -0.14637E-01  1800   0.627E-01    0.105E-01
RMM:   2    -0.116406606110E+04   -0.15993E-03   -0.34681E-03  1846   0.992E-02    0.972E-02
RMM:   3    -0.116406594630E+04    0.11480E-03   -0.27206E-04  1164   0.596E-02    0.837E-02
RMM:   4    -0.116406565632E+04    0.28998E-03   -0.97041E-04  1747   0.504E-02    0.303E-02
RMM:   5    -0.116406566774E+04   -0.11426E-04   -0.13691E-04  1046   0.432E-02
   3 F= -.11716955E+04 E0= -.11716955E+04  d E =-.673558E-03  mag=    -1.0000
