       N       E                     dE             d eps       ncg     rms          rms(c)
DAV:   1     0.495515206332E+04    0.49552E+04   -0.16920E+05  1800   0.905E+02
DAV:   2    -0.543813535795E+02   -0.50095E+04   -0.45747E+04  2592   0.208E+02
DAV:   3    -0.118623637413E+04   -0.11319E+04   -0.11270E+04  2124   0.110E+02
DAV:   4    -0.123102786172E+04   -0.44791E+02   -0.44556E+02  2052   0.287E+01
DAV:   5    -0.123218883003E+04   -0.11610E+01   -0.11576E+01  2268   0.424E+00    0.670E+01
RMM:   6    -0.121426480697E+04    0.17924E+02   -0.24214E+01  1584   0.458E+00    0.551E+01
RMM:   7    -0.119935091369E+04    0.14914E+02   -0.82213E+00  1584   0.338E+00    0.420E+01
RMM:   8    -0.117687958429E+04    0.22471E+02   -0.23676E+01  1584   0.562E+00    0.287E+01
RMM:   9    -0.116473842317E+04    0.12141E+02   -0.26887E+01  1584   0.590E+00    0.186E+01
RMM:  10    -0.116656712210E+04   -0.18287E+01   -0.14369E+01  1584   0.430E+00    0.100E+01
RMM:  11    -0.116637890350E+04    0.18822E+00   -0.59942E-01  1625   0.100E+00    0.856E+00
RMM:  12    -0.116560444252E+04    0.77446E+00   -0.15678E+00  1584   0.126E+00    0.778E+00
RMM:  13    -0.116573679347E+04   -0.13235E+00   -0.12586E-01  1619   0.325E-01    0.491E+00
RMM:  14    -0.116544632821E+04    0.29047E+00   -0.11586E+00  1584   0.906E-01    0.427E+00
RMM:  15    -0.116530639783E+04    0.13993E+00   -0.12482E-01  1587   0.370E-01    0.334E+00
RMM:  16    -0.116535011736E+04   -0.43720E-01   -0.10621E-01  1586   0.283E-01    0.478E+00
RMM:  17    -0.116538213153E+04   -0.32014E-01   -0.19631E-02  1609   0.140E-01    0.392E+00
RMM:  18    -0.116536923994E+04    0.12892E-01   -0.60014E-03  1584   0.761E-02    0.323E+00
RMM:  19    -0.116536523121E+04    0.40087E-02   -0.85183E-04  1285   0.289E-02    0.304E+00
RMM:  20    -0.116535298540E+04    0.12246E-01   -0.47500E-03  1593   0.690E-02    0.208E+00
RMM:  21    -0.116535002659E+04    0.29588E-02   -0.83786E-03  1600   0.834E-02    0.153E-01
RMM:  22    -0.116535333690E+04   -0.33103E-02   -0.77065E-04  1445   0.343E-02    0.130E+00
RMM:  23    -0.116535339522E+04   -0.58320E-04   -0.64036E-04  1160   0.207E-02
   1 F= -.11726158E+04 E0= -.11725929E+04  d E =-.117262E+04  mag=    -0.1318
       N       E                     dE             d eps       ncg     rms          rms(c)
DAV:   1    -0.116535198685E+04    0.13500E-02   -0.22714E+00  1584   0.220E+00    0.159E+00
RMM:   2    -0.116534880302E+04    0.31838E-02   -0.67121E-02  1586   0.321E-01    0.924E-01
RMM:   3    -0.116534676735E+04    0.20357E-02   -0.77826E-03  1621   0.918E-02    0.617E-01
RMM:   4    -0.116534625258E+04    0.51476E-03   -0.26288E-03  1575   0.520E-02    0.709E-01
RMM:   5    -0.116534415512E+04    0.20975E-02   -0.97642E-03  1584   0.991E-02    0.191E-01
RMM:   6    -0.116534422311E+04   -0.67994E-04   -0.73022E-04  1475   0.295E-02
   2 F= -.11726090E+04 E0= -.11725871E+04  d E =0.684463E-02  mag=    -0.3650
       N       E                     dE             d eps       ncg     rms          rms(c)
DAV:   1    -0.116535750444E+04   -0.13349E-01   -0.11149E+00  1728   0.152E+00    0.178E+00
RMM:   2    -0.116535708201E+04    0.42243E-03   -0.35544E-02  1584   0.226E-01    0.982E-01
RMM:   3    -0.116535435241E+04    0.27296E-02   -0.22507E-03  1513   0.553E-02    0.488E-01
RMM:   4    -0.116535392714E+04    0.42527E-03   -0.41089E-04  1197   0.233E-02    0.463E-01
RMM:   5    -0.116535217489E+04    0.17523E-02   -0.14901E-02  1584   0.119E-01    0.504E-01
RMM:   6    -0.116535230493E+04   -0.13004E-03   -0.41936E-04  1186   0.244E-02    0.231E-01
RMM:   7    -0.116535248812E+04   -0.18319E-03   -0.16620E-04  1057   0.151E-02    0.150E-01
RMM:   8    -0.116535258739E+04   -0.99270E-04   -0.40280E-04  1205   0.203E-02
   3 F= -.11726157E+04 E0= -.11725928E+04  d E =0.861131E-04  mag=    -0.1072
