       N       E                     dE             d eps       ncg     rms          rms(c)
DAV:   1     0.502489089313E+04    0.50249E+04   -0.16937E+05  1656   0.990E+02
DAV:   2     0.358265397632E+02   -0.49891E+04   -0.45991E+04  2268   0.224E+02
DAV:   3    -0.116478248296E+04   -0.12006E+04   -0.11949E+04  1872   0.121E+02
DAV:   4    -0.121740442804E+04   -0.52622E+02   -0.52263E+02  1872   0.336E+01
DAV:   5    -0.121866820017E+04   -0.12638E+01   -0.12606E+01  2088   0.489E+00    0.599E+01
RMM:   6    -0.120619161946E+04    0.12477E+02   -0.72528E+00  1440   0.346E+00    0.488E+01
RMM:   7    -0.116627135558E+04    0.39920E+02   -0.61644E+01  1440   0.990E+00    0.321E+01
RMM:   8    -0.116131608635E+04    0.49553E+01   -0.59652E+00  1443   0.315E+00    0.259E+01
RMM:   9    -0.115539556644E+04    0.59205E+01   -0.33105E+01  1440   0.713E+00    0.117E+01
RMM:  10    -0.115619940876E+04   -0.80384E+00   -0.33567E+00  1452   0.242E+00    0.831E+00
RMM:  11    -0.115545457546E+04    0.74483E+00   -0.96530E-01  1440   0.118E+00    0.464E+00
RMM:  12    -0.115526595311E+04    0.18862E+00   -0.42696E-01  1440   0.795E-01    0.195E+00
RMM:  13    -0.115523006368E+04    0.35889E-01   -0.20631E-01  1440   0.569E-01    0.921E-01
RMM:  14    -0.115521906696E+04    0.10997E-01   -0.21252E-02  1461   0.182E-01    0.592E-01
RMM:  15    -0.115521969099E+04   -0.62403E-03   -0.61447E-03  1436   0.889E-02    0.444E-01
RMM:  16    -0.115521967714E+04    0.13847E-04   -0.10311E-03  1436   0.405E-02    0.291E-01
RMM:  17    -0.115521950165E+04    0.17550E-03   -0.10967E-03  1336   0.435E-02    0.191E-01
RMM:  18    -0.115521956365E+04   -0.62006E-04   -0.45400E-04  1184   0.292E-02
   1 F= -.11622805E+04 E0= -.11622759E+04  d E =-.116228E+04  mag=    -0.8664
       N       E                     dE             d eps       ncg     rms          rms(c)
DAV:   1    -0.115522069293E+04   -0.11913E-02   -0.24797E-01  1512   0.859E-01    0.177E-01
RMM:   2    -0.115522074515E+04   -0.52221E-04   -0.56675E-03  1440   0.117E-01    0.163E-01
RMM:   3    -0.115522023077E+04    0.51438E-03   -0.45478E-04  1165   0.304E-02    0.133E-01
RMM:   4    -0.115521952279E+04    0.70798E-03   -0.27258E-03  1440   0.627E-02    0.429E-02
RMM:   5    -0.115521952119E+04    0.16012E-05   -0.55672E-05   872   0.122E-02
   2 F= -.11622807E+04 E0= -.11622759E+04  d E =-.164058E-03  mag=    -0.8575
       N       E                     dE             d eps       ncg     rms          rms(c)
DAV:   1    -0.115522030479E+04   -0.78201E-03   -0.50671E-02  1512   0.388E-01    0.736E-02
RMM:   2    -0.115522029785E+04    0.69415E-05   -0.95422E-04  1439   0.506E-02
   3 F= -.11622814E+04 E0= -.11622766E+04  d E =-.846875E-03  mag=    -0.8574
