       N       E                     dE             d eps       ncg     rms          rms(c)
DAV:   1     0.465395522833E+04    0.46540E+04   -0.17440E+05  1944   0.905E+02
DAV:   2    -0.802544667494E+02   -0.47342E+04   -0.42851E+04  2520   0.204E+02
DAV:   3    -0.117621575612E+04   -0.10960E+04   -0.10911E+04  2124   0.109E+02
DAV:   4    -0.122977343332E+04   -0.53558E+02   -0.53241E+02  2160   0.323E+01
DAV:   5    -0.123165515127E+04   -0.18817E+01   -0.18770E+01  2484   0.562E+00    0.607E+01
RMM:   6    -0.121820869410E+04    0.13446E+02   -0.64859E+00  1685   0.327E+00    0.497E+01
RMM:   7    -0.117535847224E+04    0.42850E+02   -0.69335E+01  1882   0.112E+01    0.284E+01
RMM:   8    -0.116567009620E+04    0.96884E+01   -0.27659E+01  1777   0.934E+00    0.163E+01
RMM:   9    -0.116612247951E+04   -0.45238E+00   -0.20015E+01  1786   0.766E+00    0.901E+00
RMM:  10    -0.116596323943E+04    0.15924E+00   -0.30231E+00  1868   0.503E+00    0.670E+00
RMM:  11    -0.116537880901E+04    0.58443E+00   -0.16916E+00  1783   0.171E+00    0.313E+00
RMM:  12    -0.116531866170E+04    0.60147E-01   -0.21372E-01  1801   0.144E+00    0.148E+00
RMM:  13    -0.116529723590E+04    0.21426E-01   -0.15286E-01  1876   0.482E-01    0.981E-01
RMM:  14    -0.116529096220E+04    0.62737E-02   -0.24567E-02  1835   0.338E-01    0.674E-01
RMM:  15    -0.116529162588E+04   -0.66368E-03   -0.80669E-03  1855   0.150E-01    0.514E-01
RMM:  16    -0.116529184711E+04   -0.22123E-03   -0.12662E-03  1542   0.734E-02    0.384E-01
RMM:  17    -0.116529188401E+04   -0.36896E-04   -0.11780E-03  1662   0.660E-02    0.173E-01
RMM:  18    -0.116529198033E+04   -0.96320E-04   -0.78733E-04  1591   0.606E-02
   1 F= -.11722558E+04 E0= -.11722421E+04  d E =-.117226E+04  mag=    -0.2091
       N       E                     dE             d eps       ncg     rms          rms(c)
DAV:   1    -0.116529139030E+04    0.49370E-03   -0.15569E-01  1908   0.686E-01    0.114E-01
RMM:   2    -0.116529184852E+04   -0.45821E-03   -0.63841E-03  1720   0.114E-01    0.105E-01
RMM:   3    -0.116529180071E+04    0.47810E-04   -0.67386E-04  1330   0.958E-02
   2 F= -.11722557E+04 E0= -.11722420E+04  d E =0.116097E-03  mag=    -0.2067
       N       E                     dE             d eps       ncg     rms          rms(c)
DAV:   1    -0.116529198868E+04   -0.14016E-03   -0.41358E-02  1944   0.348E-01    0.409E-02
RMM:   2    -0.116529213612E+04   -0.14744E-03   -0.13378E-03  1600   0.574E-02    0.217E-02
RMM:   3    -0.116529215466E+04   -0.18537E-04   -0.17956E-04  1071   0.574E-02
   3 F= -.11722560E+04 E0= -.11722423E+04  d E =-.205446E-03  mag=    -0.2038
