       N       E                     dE             d eps       ncg     rms          rms(c)
DAV:   1     0.458347945761E+04    0.45835E+04   -0.17649E+05  1888   0.934E+02
DAV:   2    -0.102249037581E+03   -0.46857E+04   -0.42595E+04  2432   0.210E+02
DAV:   3    -0.118403591038E+04   -0.10818E+04   -0.10742E+04  2016   0.109E+02
DAV:   4    -0.122868011165E+04   -0.44644E+02   -0.44395E+02  1952   0.291E+01
DAV:   5    -0.122979451874E+04   -0.11144E+01   -0.11116E+01  2304   0.423E+00    0.646E+01
RMM:   6    -0.121156694404E+04    0.18228E+02   -0.13032E+01  1641   0.461E+00    0.504E+01
RMM:   7    -0.118719977862E+04    0.24367E+02   -0.36165E+01  1630   0.733E+00    0.437E+01
RMM:   8    -0.118092912510E+04    0.62707E+01   -0.70458E+00  1589   0.402E+00    0.326E+01
RMM:   9    -0.116336387150E+04    0.17565E+02   -0.28900E+01  1719   0.657E+00    0.216E+01
RMM:  10    -0.116162263058E+04    0.17412E+01   -0.25889E+01  1669   0.683E+00    0.105E+01
RMM:  11    -0.116221704711E+04   -0.59442E+00   -0.30417E+00  1711   0.288E+00    0.769E+00
RMM:  12    -0.116194630284E+04    0.27074E+00   -0.37965E-01  1746   0.105E+00    0.560E+00
RMM:  13    -0.116157052673E+04    0.37578E+00   -0.13507E+00  1559   0.151E+00    0.137E+00
RMM:  14    -0.116163140604E+04   -0.60879E-01   -0.11794E-01  1598   0.603E-01    0.102E+00
RMM:  15    -0.116162884233E+04    0.25637E-02   -0.68523E-02  1612   0.370E-01    0.485E-01
RMM:  16    -0.116162884037E+04    0.19582E-05   -0.10436E-02  1626   0.163E-01    0.420E-01
RMM:  17    -0.116163090306E+04   -0.20627E-02   -0.88264E-03  1695   0.120E-01    0.243E-01
RMM:  18    -0.116163295863E+04   -0.20556E-02   -0.43357E-03  1571   0.977E-02    0.189E-01
RMM:  19    -0.116163318226E+04   -0.22363E-03   -0.77808E-04  1806   0.414E-02    0.140E-01
RMM:  20    -0.116163323861E+04   -0.56351E-04   -0.26973E-04  1603   0.233E-02    0.876E-02
RMM:  21    -0.116163355601E+04   -0.31740E-03   -0.24021E-04  1607   0.206E-02    0.536E-02
RMM:  22    -0.116163363088E+04   -0.74876E-04   -0.11355E-04  1685   0.137E-02    0.566E-02
RMM:  23    -0.116163368799E+04   -0.57106E-04   -0.12428E-04  1575   0.144E-02    0.303E-02
RMM:  24    -0.116163374642E+04   -0.58433E-04   -0.40884E-05  1618   0.812E-03    0.282E-02
RMM:  25    -0.116163380020E+04   -0.53775E-04   -0.37575E-05  1605   0.639E-03    0.270E-02
RMM:  26    -0.116163385473E+04   -0.54535E-04   -0.88478E-05  1717   0.919E-03    0.263E-02
RMM:  27    -0.116163391958E+04   -0.64850E-04   -0.91646E-05  1699   0.860E-03    0.190E-02
RMM:  28    -0.116163393658E+04   -0.16999E-04   -0.19011E-04  1820   0.119E-02    0.143E-02
RMM:  29    -0.116163400838E+04   -0.71794E-04   -0.11019E-04  1778   0.886E-03    0.112E-02
RMM:  30    -0.116163406886E+04   -0.60482E-04   -0.37575E-05  1541   0.533E-03    0.819E-03
RMM:  31    -0.116163410570E+04   -0.36842E-04   -0.97724E-06  1404   0.356E-03    0.486E-03
RMM:  32    -0.116163411664E+04   -0.10941E-04   -0.20096E-06  1065   0.184E-03    0.391E-03
RMM:  33    -0.116163412045E+04   -0.38076E-05   -0.72349E-07  1028   0.116E-03    0.312E-03
RMM:  34    -0.116163412106E+04   -0.61306E-06   -0.32801E-07  1002   0.851E-04
   1 F= -.11616341E+04 E0= -.11616341E+04  d E =-.116163E+04  mag=     3.0000
       N       E                     dE             d eps       ncg     rms          rms(c)
DAV:   1    -0.116128252444E+04    0.35160E+00   -0.26795E+01  1920   0.128E+01    0.248E+00
RMM:   2    -0.116154248400E+04   -0.25996E+00   -0.26282E+00  1831   0.212E+00    0.176E+00
RMM:   3    -0.116159899665E+04   -0.56513E-01   -0.53930E-01  1958   0.810E-01    0.130E+00
RMM:   4    -0.116160376859E+04   -0.47719E-02   -0.79713E-02  1870   0.329E-01    0.889E-01
RMM:   5    -0.116160150077E+04    0.22678E-02   -0.22658E-02  1730   0.190E-01    0.584E-01
RMM:   6    -0.116160281989E+04   -0.13191E-02   -0.16696E-02  1602   0.169E-01    0.223E-01
RMM:   7    -0.116160392536E+04   -0.11055E-02   -0.41876E-03  1790   0.858E-02    0.156E-01
RMM:   8    -0.116160353496E+04    0.39040E-03   -0.77468E-04  1632   0.397E-02    0.104E-01
RMM:   9    -0.116160351844E+04    0.16520E-04   -0.69554E-04  1622   0.325E-02    0.494E-02
RMM:  10    -0.116160352379E+04   -0.53525E-05   -0.19971E-04  1746   0.185E-02    0.320E-02
RMM:  11    -0.116160353332E+04   -0.95323E-05   -0.58140E-05  1702   0.102E-02    0.198E-02
RMM:  12    -0.116160353922E+04   -0.58930E-05   -0.20052E-05  1644   0.575E-03    0.162E-02
RMM:  13    -0.116160355034E+04   -0.11120E-04   -0.11458E-05  1619   0.409E-03    0.139E-02
RMM:  14    -0.116160355725E+04   -0.69179E-05   -0.39894E-06  1172   0.249E-03    0.129E-02
RMM:  15    -0.116160357044E+04   -0.13182E-04   -0.83062E-06  1229   0.301E-03    0.119E-02
RMM:  16    -0.116160358261E+04   -0.12177E-04   -0.68949E-06  1213   0.254E-03    0.111E-02
RMM:  17    -0.116160358425E+04   -0.16340E-05   -0.28218E-05  1618   0.504E-03    0.102E-02
RMM:  18    -0.116160359315E+04   -0.89025E-05   -0.38444E-05  1454   0.538E-03    0.973E-03
RMM:  19    -0.116160361503E+04   -0.21880E-04   -0.31537E-05  1531   0.476E-03    0.771E-03
RMM:  20    -0.116160362741E+04   -0.12385E-04   -0.31559E-05  1401   0.462E-03    0.689E-03
RMM:  21    -0.116160365483E+04   -0.27421E-04   -0.14044E-05  1290   0.320E-03    0.592E-03
RMM:  22    -0.116160367371E+04   -0.18880E-04   -0.53463E-06  1135   0.204E-03    0.531E-03
RMM:  23    -0.116160368020E+04   -0.64860E-05   -0.47121E-06  1132   0.185E-03    0.494E-03
RMM:  24    -0.116160369201E+04   -0.11811E-04   -0.87298E-07  1017   0.116E-03    0.472E-03
RMM:  25    -0.116160369255E+04   -0.53753E-06   -0.31805E-07   850   0.628E-04
   2 F= -.11616037E+04 E0= -.11616037E+04  d E =0.304285E-01  mag=     3.0000
       N       E                     dE             d eps       ncg     rms          rms(c)
DAV:   1    -0.116157091092E+04    0.32781E-01   -0.88444E+00  1920   0.732E+00    0.141E+00
RMM:   2    -0.116165179591E+04   -0.80885E-01   -0.82037E-01  1812   0.119E+00    0.101E+00
RMM:   3    -0.116166993141E+04   -0.18135E-01   -0.16901E-01  1883   0.455E-01    0.711E-01
RMM:   4    -0.116167116114E+04   -0.12297E-02   -0.24318E-02  1855   0.188E-01    0.500E-01
RMM:   5    -0.116167072464E+04    0.43650E-03   -0.72107E-03  1743   0.105E-01    0.327E-01
RMM:   6    -0.116167125685E+04   -0.53221E-03   -0.44253E-03  1613   0.877E-02    0.142E-01
RMM:   7    -0.116167165307E+04   -0.39623E-03   -0.11271E-03  1815   0.453E-02    0.913E-02
RMM:   8    -0.116167155798E+04    0.95087E-04   -0.24095E-04  1623   0.224E-02    0.586E-02
RMM:   9    -0.116167159156E+04   -0.33577E-04   -0.19076E-04  1619   0.174E-02    0.264E-02
RMM:  10    -0.116167159765E+04   -0.60836E-05   -0.50660E-05  1732   0.929E-03    0.169E-02
RMM:  11    -0.116167159998E+04   -0.23362E-05   -0.13747E-05  1683   0.500E-03    0.101E-02
RMM:  12    -0.116167160139E+04   -0.14107E-05   -0.67033E-06  1459   0.311E-03    0.769E-03
RMM:  13    -0.116167160259E+04   -0.11990E-05   -0.20449E-06  1098   0.192E-03    0.646E-03
RMM:  14    -0.116167160427E+04   -0.16745E-05   -0.98564E-07  1042   0.134E-03    0.543E-03
RMM:  15    -0.116167160648E+04   -0.22148E-05   -0.14845E-06  1062   0.139E-03    0.493E-03
RMM:  16    -0.116167160788E+04   -0.13989E-05   -0.77974E-07  1043   0.938E-04    0.455E-03
RMM:  17    -0.116167160739E+04    0.48476E-06   -0.43468E-06  1151   0.207E-03
   3 F= -.11616716E+04 E0= -.11616716E+04  d E =-.374863E-01  mag=     3.0000
       N       E                     dE             d eps       ncg     rms          rms(c)
DAV:   1    -0.116125976315E+04    0.41184E+00   -0.18674E+01  2048   0.129E+01    0.286E+00
RMM:   2    -0.116163908907E+04   -0.37933E+00   -0.37052E+00  1904   0.195E+00    0.182E+00
RMM:   3    -0.116169052141E+04   -0.51432E-01   -0.37572E-01  1871   0.675E-01    0.111E+00
RMM:   4    -0.116170262104E+04   -0.12100E-01   -0.64870E-02  1810   0.280E-01    0.663E-01
RMM:   5    -0.116170466022E+04   -0.20392E-02   -0.11103E-02  1869   0.126E-01    0.480E-01
RMM:   6    -0.116170845454E+04   -0.37943E-02   -0.72948E-03  1630   0.113E-01    0.161E-01
RMM:   7    -0.116170933308E+04   -0.87854E-03   -0.11666E-03  1799   0.517E-02    0.995E-02
RMM:   8    -0.116170939418E+04   -0.61100E-04   -0.29315E-04  1682   0.240E-02    0.626E-02
RMM:   9    -0.116170940677E+04   -0.12586E-04   -0.24605E-04  1648   0.194E-02    0.347E-02
RMM:  10    -0.116170943660E+04   -0.29831E-04   -0.91262E-05  1717   0.122E-02    0.276E-02
RMM:  11    -0.116170944230E+04   -0.56959E-05   -0.17913E-05  1647   0.594E-03    0.214E-02
RMM:  12    -0.116170946007E+04   -0.17776E-04   -0.27640E-05  1602   0.641E-03    0.175E-02
RMM:  13    -0.116170946611E+04   -0.60337E-05   -0.65262E-06  1382   0.321E-03    0.159E-02
RMM:  14    -0.116170948594E+04   -0.19838E-04   -0.24202E-05  1548   0.526E-03    0.133E-02
RMM:  15    -0.116170950214E+04   -0.16199E-04   -0.24815E-05  1481   0.490E-03    0.121E-02
RMM:  16    -0.116170951520E+04   -0.13053E-04   -0.31011E-05  1729   0.546E-03    0.876E-03
RMM:  17    -0.116170952436E+04   -0.91618E-05   -0.24180E-05  1421   0.460E-03    0.721E-03
RMM:  18    -0.116170953192E+04   -0.75585E-05   -0.13527E-05  1394   0.355E-03    0.460E-03
RMM:  19    -0.116170953436E+04   -0.24456E-05   -0.11498E-05  1317   0.320E-03    0.297E-03
RMM:  20    -0.116170953988E+04   -0.55135E-05   -0.15537E-06  1053   0.148E-03    0.155E-03
RMM:  21    -0.116170954106E+04   -0.11843E-05   -0.27977E-07  1009   0.810E-04    0.115E-03
RMM:  22    -0.116170954116E+04   -0.97541E-07   -0.98597E-08   830   0.493E-04
   4 F= -.11617095E+04 E0= -.11617095E+04  d E =-.379338E-01  mag=     3.0000
       N       E                     dE             d eps       ncg     rms          rms(c)
DAV:   1    -0.116170640671E+04    0.31344E-02   -0.14914E-01  2144   0.114E+00    0.250E-01
RMM:   2    -0.116170922607E+04   -0.28194E-02   -0.28931E-02  1900   0.171E-01    0.164E-01
RMM:   3    -0.116170962149E+04   -0.39542E-03   -0.26797E-03  1866   0.582E-02    0.934E-02
RMM:   4    -0.116170975053E+04   -0.12904E-03   -0.47924E-04  1803   0.246E-02    0.571E-02
RMM:   5    -0.116170981699E+04   -0.66459E-04   -0.12176E-04  1824   0.122E-02    0.394E-02
RMM:   6    -0.116170989388E+04   -0.76894E-04   -0.52308E-05  1608   0.998E-03    0.147E-02
RMM:   7    -0.116170991837E+04   -0.24485E-04   -0.11139E-05  1607   0.495E-03    0.800E-03
RMM:   8    -0.116170992105E+04   -0.26790E-05   -0.23755E-06  1115   0.216E-03    0.567E-03
RMM:   9    -0.116170992348E+04   -0.24372E-05   -0.23576E-06  1127   0.199E-03    0.287E-03
RMM:  10    -0.116170992398E+04   -0.49550E-06   -0.77278E-07  1025   0.122E-03
   5 F= -.11617099E+04 E0= -.11617099E+04  d E =-.383166E-01  mag=     3.0000
       N       E                     dE             d eps       ncg     rms          rms(c)
DAV:   1    -0.116132377060E+04    0.38615E+00   -0.13416E+01  2080   0.115E+01    0.267E+00
RMM:   2    -0.116167405566E+04   -0.35029E+00   -0.34102E+00  1886   0.167E+00    0.170E+00
RMM:   3    -0.116171911373E+04   -0.45058E-01   -0.30245E-01  1882   0.563E-01    0.101E+00
RMM:   4    -0.116173071762E+04   -0.11604E-01   -0.45558E-02  1796   0.229E-01    0.581E-01
RMM:   5    -0.116173278209E+04   -0.20645E-02   -0.79193E-03  1878   0.101E-01    0.430E-01
RMM:   6    -0.116173720114E+04   -0.44191E-02   -0.55269E-03  1613   0.962E-02    0.134E-01
RMM:   7    -0.116173775757E+04   -0.55643E-03   -0.63161E-04  1816   0.398E-02    0.825E-02
RMM:   8    -0.116173778425E+04   -0.26677E-04   -0.20007E-04  1672   0.192E-02    0.537E-02
RMM:   9    -0.116173781995E+04   -0.35699E-04   -0.14344E-04  1674   0.148E-02    0.296E-02
RMM:  10    -0.116173784360E+04   -0.23648E-04   -0.57027E-05  1737   0.964E-03    0.220E-02
RMM:  11    -0.116173784812E+04   -0.45195E-05   -0.85333E-06  1522   0.409E-03    0.186E-02
RMM:  12    -0.116173786219E+04   -0.14071E-04   -0.22675E-05  1615   0.559E-03    0.146E-02
RMM:  13    -0.116173786699E+04   -0.47983E-05   -0.54936E-06  1358   0.291E-03    0.132E-02
RMM:  14    -0.116173787790E+04   -0.10916E-04   -0.92438E-06  1236   0.329E-03    0.113E-02
RMM:  15    -0.116173788746E+04   -0.95587E-05   -0.36580E-05  1521   0.576E-03    0.941E-03
RMM:  16    -0.116173790070E+04   -0.13241E-04   -0.91101E-06  1274   0.296E-03    0.753E-03
RMM:  17    -0.116173790185E+04   -0.11459E-05   -0.32032E-05  1485   0.531E-03    0.609E-03
RMM:  18    -0.116173791293E+04   -0.11086E-04   -0.51471E-06  1182   0.223E-03    0.512E-03
RMM:  19    -0.116173791486E+04   -0.19224E-05   -0.40168E-06  1146   0.201E-03    0.283E-03
RMM:  20    -0.116173791728E+04   -0.24232E-05   -0.14909E-06  1070   0.127E-03    0.190E-03
RMM:  21    -0.116173791885E+04   -0.15662E-05   -0.25894E-07   973   0.694E-04    0.158E-03
RMM:  22    -0.116173791914E+04   -0.29712E-06   -0.80391E-08   778   0.465E-04
   6 F= -.11617379E+04 E0= -.11617379E+04  d E =-.279952E-01  mag=     3.0000
       N       E                     dE             d eps       ncg     rms          rms(c)
DAV:   1    -0.116173389771E+04    0.40211E-02   -0.14457E-01  2208   0.118E+00    0.271E-01
RMM:   2    -0.116173733357E+04   -0.34359E-02   -0.35027E-02  1880   0.167E-01    0.175E-01
RMM:   3    -0.116173778033E+04   -0.44676E-03   -0.27602E-03  1862   0.561E-02    0.989E-02
RMM:   4    -0.116173794396E+04   -0.16363E-03   -0.49189E-04  1776   0.238E-02    0.582E-02
RMM:   5    -0.116173804257E+04   -0.98605E-04   -0.13653E-04  1767   0.128E-02    0.351E-02
RMM:   6    -0.116173813976E+04   -0.97192E-04   -0.54433E-05  1624   0.928E-03    0.135E-02
RMM:   7    -0.116173815744E+04   -0.17681E-04   -0.83760E-06  1387   0.412E-03    0.678E-03
RMM:   8    -0.116173815781E+04   -0.36821E-06   -0.24936E-06  1134   0.186E-03
   7 F= -.11617382E+04 E0= -.11617382E+04  d E =-.282338E-01  mag=     3.0000
       N       E                     dE             d eps       ncg     rms          rms(c)
DAV:   1    -0.116137430972E+04    0.36385E+00   -0.11661E+01  2144   0.108E+01    0.254E+00
RMM:   2    -0.116169771199E+04   -0.32340E+00   -0.31277E+00  1881   0.156E+00    0.162E+00
RMM:   3    -0.116173915792E+04   -0.41446E-01   -0.27753E-01  1866   0.525E-01    0.969E-01
RMM:   4    -0.116175032114E+04   -0.11163E-01   -0.39938E-02  1824   0.212E-01    0.551E-01
RMM:   5    -0.116175272728E+04   -0.24061E-02   -0.80073E-03  1988   0.954E-02    0.408E-01
RMM:   6    -0.116175692910E+04   -0.42018E-02   -0.37842E-03  1633   0.780E-02    0.117E-01
RMM:   7    -0.116175743777E+04   -0.50867E-03   -0.46192E-04  1943   0.320E-02    0.747E-02
RMM:   8    -0.116175744739E+04   -0.96175E-05   -0.14151E-04  1628   0.158E-02    0.481E-02
RMM:   9    -0.116175747209E+04   -0.24700E-04   -0.13022E-04  1662   0.140E-02    0.252E-02
RMM:  10    -0.116175748874E+04   -0.16654E-04   -0.50029E-05  1842   0.886E-03    0.184E-02
RMM:  11    -0.116175749174E+04   -0.29934E-05   -0.88728E-06  1512   0.397E-03    0.133E-02
RMM:  12    -0.116175749733E+04   -0.55938E-05   -0.11792E-05  1529   0.390E-03    0.108E-02
RMM:  13    -0.116175750110E+04   -0.37725E-05   -0.32537E-06  1156   0.224E-03    0.992E-03
RMM:  14    -0.116175750817E+04   -0.70674E-05   -0.12588E-05  1447   0.384E-03    0.910E-03
RMM:  15    -0.116175751566E+04   -0.74875E-05   -0.55969E-06  1198   0.237E-03    0.794E-03
RMM:  16    -0.116175751410E+04    0.15618E-05   -0.26516E-05  1723   0.511E-03    0.599E-03
RMM:  17    -0.116175752299E+04   -0.88972E-05   -0.13213E-05  1281   0.337E-03    0.478E-03
RMM:  18    -0.116175753154E+04   -0.85422E-05   -0.49386E-06  1196   0.216E-03    0.373E-03
RMM:  19    -0.116175753616E+04   -0.46193E-05   -0.17370E-06  1063   0.136E-03    0.317E-03
RMM:  20    -0.116175753880E+04   -0.26440E-05   -0.63616E-07   985   0.867E-04    0.291E-03
RMM:  21    -0.116175753998E+04   -0.11795E-05   -0.24550E-07   830   0.583E-04    0.282E-03
RMM:  22    -0.116175754061E+04   -0.63355E-06   -0.18106E-07   762   0.497E-04
   8 F= -.11617575E+04 E0= -.11617575E+04  d E =-.193828E-01  mag=     3.0000
       N       E                     dE             d eps       ncg     rms          rms(c)
DAV:   1    -0.116175753942E+04    0.55486E-06   -0.60572E-05  2272   0.246E-02    0.629E-03
RMM:   2    -0.116175753977E+04   -0.34721E-06   -0.15873E-05  1200   0.356E-03    0.456E-03
RMM:   3    -0.116175754059E+04   -0.81644E-06   -0.13238E-06   928   0.116E-03
   9 F= -.11617575E+04 E0= -.11617575E+04  d E =-.193828E-01  mag=     3.0000
       N       E                     dE             d eps       ncg     rms          rms(c)
DAV:   1    -0.116149454564E+04    0.26299E+00   -0.83462E+00  2176   0.910E+00    0.213E+00
RMM:   2    -0.116172581948E+04   -0.23127E+00   -0.22414E+00  1877   0.129E+00    0.137E+00
RMM:   3    -0.116175590674E+04   -0.30087E-01   -0.19334E-01  1876   0.439E-01    0.813E-01
RMM:   4    -0.116176426524E+04   -0.83585E-02   -0.29935E-02  1827   0.177E-01    0.468E-01
RMM:   5    -0.116176602423E+04   -0.17590E-02   -0.54900E-03  1965   0.784E-02    0.343E-01
RMM:   6    -0.116176957765E+04   -0.35534E-02   -0.28125E-03  1609   0.675E-02    0.881E-02
RMM:   7    -0.116176987664E+04   -0.29898E-03   -0.32157E-04  1907   0.267E-02    0.593E-02
RMM:   8    -0.116176988533E+04   -0.86923E-05   -0.83061E-05  1666   0.126E-02    0.396E-02
RMM:   9    -0.116176990236E+04   -0.17030E-04   -0.70707E-05  1660   0.107E-02    0.193E-02
RMM:  10    -0.116176991593E+04   -0.13575E-04   -0.36315E-05  1700   0.774E-03    0.117E-02
RMM:  11    -0.116176991755E+04   -0.16126E-05   -0.47030E-06  1314   0.311E-03    0.870E-03
RMM:  12    -0.116176992011E+04   -0.25676E-05   -0.57385E-06  1442   0.282E-03    0.624E-03
RMM:  13    -0.116176992065E+04   -0.53833E-06   -0.13005E-06  1062   0.157E-03
  10 F= -.11617699E+04 E0= -.11617699E+04  d E =-.123801E-01  mag=     3.0000
       N       E                     dE             d eps       ncg     rms          rms(c)
DAV:   1    -0.116176973874E+04    0.18137E-03   -0.59493E-03  2176   0.241E-01    0.567E-02
RMM:   2    -0.116176986696E+04   -0.12822E-03   -0.15678E-03  1873   0.341E-02    0.368E-02
RMM:   3    -0.116176989189E+04   -0.24930E-04   -0.12527E-04  1686   0.115E-02    0.209E-02
RMM:   4    -0.116176990670E+04   -0.14805E-04   -0.24023E-05  1384   0.493E-03    0.132E-02
RMM:   5    -0.116176992005E+04   -0.13350E-04   -0.65732E-06  1262   0.255E-03    0.923E-03
RMM:   6    -0.116176993787E+04   -0.17825E-04   -0.36189E-06  1093   0.240E-03    0.535E-03
RMM:   7    -0.116176994041E+04   -0.25410E-05   -0.75546E-07  1040   0.102E-03    0.491E-03
RMM:   8    -0.116176994087E+04   -0.45523E-06   -0.28634E-07   830   0.596E-04
  11 F= -.11617699E+04 E0= -.11617699E+04  d E =-.124003E-01  mag=     3.0000
       N       E                     dE             d eps       ncg     rms          rms(c)
DAV:   1    -0.116163640937E+04    0.13353E+00   -0.48642E+00  2208   0.670E+00    0.152E+00
RMM:   2    -0.116175479053E+04   -0.11838E+00   -0.11549E+00  1857   0.947E-01    0.992E-01
RMM:   3    -0.116176952323E+04   -0.14733E-01   -0.95353E-02  1859   0.326E-01    0.588E-01
RMM:   4    -0.116177397965E+04   -0.44564E-02   -0.16294E-02  1808   0.133E-01    0.344E-01
RMM:   5    -0.116177510551E+04   -0.11259E-02   -0.31071E-03  1896   0.628E-02    0.241E-01
RMM:   6    -0.116177699467E+04   -0.18892E-02   -0.18018E-03  1596   0.558E-02    0.654E-02
RMM:   7    -0.116177715684E+04   -0.16217E-03   -0.21159E-04  1870   0.228E-02    0.444E-02
RMM:   8    -0.116177714839E+04    0.84448E-05   -0.58584E-05  1655   0.108E-02    0.314E-02
RMM:   9    -0.116177716304E+04   -0.14648E-04   -0.60490E-05  1644   0.988E-03    0.140E-02
RMM:  10    -0.116177717600E+04   -0.12956E-04   -0.26418E-05  1667   0.667E-03    0.993E-03
RMM:  11    -0.116177717607E+04   -0.74440E-07   -0.29387E-06  1174   0.267E-03
  12 F= -.11617772E+04 E0= -.11617772E+04  d E =-.723520E-02  mag=     3.0000
       N       E                     dE             d eps       ncg     rms          rms(c)
DAV:   1    -0.116177601130E+04    0.11647E-02   -0.43906E-02  2176   0.632E-01    0.144E-01
RMM:   2    -0.116177699119E+04   -0.97988E-03   -0.10265E-02  1839   0.897E-02    0.937E-02
RMM:   3    -0.116177711456E+04   -0.12337E-03   -0.80167E-04  1844   0.308E-02    0.539E-02
RMM:   4    -0.116177716647E+04   -0.51911E-04   -0.14862E-04  1770   0.131E-02    0.324E-02
RMM:   5    -0.116177721101E+04   -0.44538E-04   -0.42329E-05  1732   0.711E-03    0.198E-02
RMM:   6    -0.116177726022E+04   -0.49214E-04   -0.16068E-05  1568   0.538E-03    0.790E-03
RMM:   7    -0.116177726914E+04   -0.89157E-05   -0.27646E-06  1146   0.237E-03    0.594E-03
RMM:   8    -0.116177726873E+04    0.40810E-06   -0.76135E-07  1030   0.107E-03
  13 F= -.11617773E+04 E0= -.11617773E+04  d E =-.732786E-02  mag=     3.0000
       N       E                     dE             d eps       ncg     rms          rms(c)
DAV:   1    -0.116171223667E+04    0.65032E-01   -0.26851E+00  2144   0.482E+00    0.107E+00
RMM:   2    -0.116177048690E+04   -0.58250E-01   -0.57166E-01  1853   0.685E-01    0.699E-01
RMM:   3    -0.116177771274E+04   -0.72258E-02   -0.47237E-02  1843   0.239E-01    0.414E-01
RMM:   4    -0.116178005918E+04   -0.23464E-02   -0.87279E-03  1821   0.989E-02    0.246E-01
RMM:   5    -0.116178086231E+04   -0.80312E-03   -0.16462E-03  1863   0.470E-02    0.163E-01
RMM:   6    -0.116178179696E+04   -0.93466E-03   -0.90585E-04  1590   0.403E-02    0.468E-02
RMM:   7    -0.116178189818E+04   -0.10122E-03   -0.10953E-04  1807   0.165E-02    0.303E-02
RMM:   8    -0.116178189135E+04    0.68266E-05   -0.31027E-05  1626   0.767E-03    0.232E-02
RMM:   9    -0.116178190752E+04   -0.16168E-04   -0.36103E-05  1607   0.773E-03    0.983E-03
RMM:  10    -0.116178191416E+04   -0.66401E-05   -0.11442E-05  1655   0.447E-03    0.757E-03
RMM:  11    -0.116178191405E+04    0.11412E-06   -0.14901E-06  1068   0.183E-03
  14 F= -.11617819E+04 E0= -.11617819E+04  d E =-.464532E-02  mag=     3.0000
       N       E                     dE             d eps       ncg     rms          rms(c)
DAV:   1    -0.116178190527E+04    0.88897E-05   -0.48154E-04  2144   0.650E-02    0.148E-02
RMM:   2    -0.116178191000E+04   -0.47331E-05   -0.10238E-04  1694   0.950E-03    0.104E-02
RMM:   3    -0.116178191366E+04   -0.36582E-05   -0.82614E-06  1212   0.333E-03    0.730E-03
RMM:   4    -0.116178191699E+04   -0.33272E-05   -0.17498E-06  1105   0.149E-03    0.582E-03
RMM:   5    -0.116178192029E+04   -0.32976E-05   -0.85940E-07  1039   0.101E-03    0.521E-03
RMM:   6    -0.116178192395E+04   -0.36636E-05   -0.11705E-06  1031   0.109E-03    0.486E-03
RMM:   7    -0.116178192563E+04   -0.16805E-05   -0.43057E-07   784   0.620E-04    0.480E-03
RMM:   8    -0.116178192726E+04   -0.16318E-05   -0.39735E-07   755   0.597E-04    0.476E-03
RMM:   9    -0.116178192425E+04    0.30164E-05   -0.43419E-06  1068   0.185E-03    0.487E-03
RMM:  10    -0.116178193471E+04   -0.10463E-04   -0.10550E-06   886   0.100E-03    0.473E-03
RMM:  11    -0.116178193657E+04   -0.18572E-05   -0.46866E-07   760   0.634E-04    0.468E-03
RMM:  12    -0.116178191482E+04    0.21751E-04   -0.17458E-05  1181   0.366E-03    0.522E-03
RMM:  13    -0.116178188926E+04    0.25551E-04   -0.53715E-05  1349   0.577E-03    0.664E-03
RMM:  14    -0.116178194764E+04   -0.58371E-04   -0.99064E-06  1116   0.279E-03    0.491E-03
RMM:  15    -0.116178197015E+04   -0.22510E-04   -0.30077E-06   995   0.160E-03    0.447E-03
RMM:  16    -0.116178194305E+04    0.27096E-04   -0.24706E-05  1229   0.409E-03    0.530E-03
RMM:  17    -0.116178190368E+04    0.39369E-04   -0.79451E-05  1425   0.691E-03    0.741E-03
RMM:  18    -0.116178198369E+04   -0.80013E-04   -0.12001E-05  1140   0.326E-03    0.475E-03
RMM:  19    -0.116178200775E+04   -0.24054E-04   -0.34105E-06  1017   0.171E-03    0.424E-03
RMM:  20    -0.116178198354E+04    0.24212E-04   -0.20876E-05  1194   0.374E-03    0.513E-03
RMM:  21    -0.116178192471E+04    0.58831E-04   -0.10297E-04  1492   0.798E-03    0.796E-03
RMM:  22    -0.116178191342E+04    0.11284E-04   -0.13234E-04  1523   0.832E-03    0.912E-03
RMM:  23    -0.116178194721E+04   -0.33792E-04   -0.10217E-04  1494   0.704E-03    0.843E-03
RMM:  24    -0.116178173142E+04    0.21580E-03   -0.41315E-04  1813   0.155E-02    0.148E-02
RMM:  25    -0.116178206505E+04   -0.33363E-03   -0.42455E-05  1301   0.718E-03    0.534E-03
RMM:  26    -0.116178206030E+04    0.47532E-05   -0.38319E-05  1275   0.421E-03    0.551E-03
RMM:  27    -0.116178195147E+04    0.10882E-03   -0.17842E-04  1596   0.104E-02    0.100E-02
RMM:  28    -0.116178208619E+04   -0.13471E-03   -0.75459E-05  1492   0.101E-02    0.511E-03
RMM:  29    -0.116178181569E+04    0.27050E-03   -0.45861E-04  1879   0.188E-02    0.135E-02
RMM:  30    -0.116178212466E+04   -0.30897E-03   -0.35854E-05  1309   0.777E-03    0.465E-03
RMM:  31    -0.116178178857E+04    0.33609E-03   -0.49953E-04  1907   0.183E-02    0.142E-02
RMM:  32    -0.116178208920E+04   -0.30064E-03   -0.51326E-05  1364   0.695E-03    0.477E-03
RMM:  33    -0.116178204362E+04    0.45588E-04   -0.96240E-05  1469   0.712E-03    0.803E-03
RMM:  34    -0.116178214737E+04   -0.10375E-03   -0.13797E-05  1154   0.472E-03    0.327E-03
RMM:  35    -0.116178213987E+04    0.74938E-05   -0.67817E-06  1044   0.184E-03    0.220E-03
RMM:  36    -0.116178214373E+04   -0.38544E-05   -0.29669E-06   936   0.119E-03    0.134E-03
RMM:  37    -0.116178213779E+04    0.59394E-05   -0.46982E-06  1047   0.166E-03    0.151E-03
RMM:  38    -0.116178215049E+04   -0.12702E-04   -0.10201E-06   890   0.111E-03    0.671E-04
RMM:  39    -0.116178215157E+04   -0.10800E-05   -0.51346E-07   914   0.911E-04    0.982E-04
RMM:  40    -0.116178215229E+04   -0.71691E-06   -0.38215E-07   744   0.678E-04
  15 F= -.11617822E+04 E0= -.11617822E+04  d E =-.488356E-02  mag=     3.0000
       N       E                     dE             d eps       ncg     rms          rms(c)
DAV:   1    -0.116174863424E+04    0.33517E-01   -0.15813E+00  2048   0.360E+00    0.777E-01
RMM:   2    -0.116177928068E+04   -0.30646E-01   -0.30530E-01  1837   0.512E-01    0.511E-01
RMM:   3    -0.116178332653E+04   -0.40459E-02   -0.25698E-02  1829   0.181E-01    0.304E-01
RMM:   4    -0.116178459904E+04   -0.12725E-02   -0.47423E-03  1804   0.751E-02    0.182E-01
RMM:   5    -0.116178510416E+04   -0.50512E-03   -0.97768E-04  1816   0.371E-02    0.113E-01
RMM:   6    -0.116178565899E+04   -0.55483E-03   -0.48879E-04  1587   0.301E-02    0.350E-02
RMM:   7    -0.116178570729E+04   -0.48303E-04   -0.69408E-05  1732   0.129E-02    0.206E-02
RMM:   8    -0.116178570435E+04    0.29445E-05   -0.21147E-05  1621   0.598E-03    0.164E-02
RMM:   9    -0.116178571558E+04   -0.11230E-04   -0.17393E-05  1580   0.552E-03    0.623E-03
RMM:  10    -0.116178571985E+04   -0.42754E-05   -0.52463E-06  1338   0.317E-03    0.413E-03
RMM:  11    -0.116178571974E+04    0.11632E-06   -0.78868E-07  1030   0.133E-03
  16 F= -.11617857E+04 E0= -.11617857E+04  d E =-.356745E-02  mag=     3.0000
       N       E                     dE             d eps       ncg     rms          rms(c)
DAV:   1    -0.116178372393E+04    0.19959E-02   -0.92163E-02  2080   0.867E-01    0.187E-01
RMM:   2    -0.116178542245E+04   -0.16985E-02   -0.17726E-02  1835   0.123E-01    0.123E-01
RMM:   3    -0.116178565586E+04   -0.23341E-03   -0.14676E-03  1825   0.435E-02    0.725E-02
RMM:   4    -0.116178574919E+04   -0.93331E-04   -0.27475E-04  1787   0.186E-02    0.442E-02
RMM:   5    -0.116178580399E+04   -0.54800E-04   -0.75415E-05  1724   0.102E-02    0.252E-02
RMM:   6    -0.116178586287E+04   -0.58879E-04   -0.31474E-05  1589   0.766E-03    0.854E-03
RMM:   7    -0.116178587172E+04   -0.88513E-05   -0.53976E-06  1294   0.332E-03    0.490E-03
RMM:   8    -0.116178587177E+04   -0.54941E-07   -0.12119E-06  1051   0.147E-03
  17 F= -.11617859E+04 E0= -.11617859E+04  d E =-.371949E-02  mag=     3.0000
       N       E                     dE             d eps       ncg     rms          rms(c)
DAV:   1    -0.116176596824E+04    0.19903E-01   -0.10620E+00  2016   0.289E+00    0.613E-01
RMM:   2    -0.116178481078E+04   -0.18843E-01   -0.19018E-01  1833   0.411E-01    0.405E-01
RMM:   3    -0.116178734350E+04   -0.25327E-02   -0.16442E-02  1814   0.146E-01    0.243E-01
RMM:   4    -0.116178819074E+04   -0.84724E-03   -0.30096E-03  1778   0.612E-02    0.147E-01
RMM:   5    -0.116178858161E+04   -0.39087E-03   -0.70654E-04  1734   0.323E-02    0.858E-02
RMM:   6    -0.116178891893E+04   -0.33732E-03   -0.35294E-04  1573   0.258E-02    0.287E-02
RMM:   7    -0.116178895177E+04   -0.32839E-04   -0.55366E-05  1700   0.112E-02    0.162E-02
RMM:   8    -0.116178895066E+04    0.11152E-05   -0.16062E-05  1633   0.521E-03    0.130E-02
RMM:   9    -0.116178896180E+04   -0.11144E-04   -0.12250E-05  1552   0.480E-03    0.465E-03
RMM:  10    -0.116178896364E+04   -0.18377E-05   -0.26260E-06  1112   0.238E-03    0.348E-03
RMM:  11    -0.116178896352E+04    0.11974E-06   -0.53402E-07  1030   0.106E-03
  18 F= -.11617890E+04 E0= -.11617890E+04  d E =-.309174E-02  mag=     3.0000
       N       E                     dE             d eps       ncg     rms          rms(c)
DAV:   1    -0.116178004597E+04    0.89177E-02   -0.44044E-01  2048   0.186E+00    0.395E-01
RMM:   2    -0.116178779341E+04   -0.77474E-02   -0.78875E-02  1836   0.264E-01    0.261E-01
RMM:   3    -0.116178888394E+04   -0.10905E-02   -0.68036E-03  1814   0.941E-02    0.156E-01
RMM:   4    -0.116178919346E+04   -0.30952E-03   -0.12094E-03  1775   0.398E-02    0.944E-02
RMM:   5    -0.116178938067E+04   -0.18721E-03   -0.34193E-04  1727   0.217E-02    0.542E-02
RMM:   6    -0.116178954684E+04   -0.16617E-03   -0.15192E-04  1576   0.168E-02    0.185E-02
RMM:   7    -0.116178956852E+04   -0.21687E-04   -0.23998E-05  1676   0.731E-03    0.104E-02
RMM:   8    -0.116178956821E+04    0.31511E-06   -0.71832E-06  1423   0.342E-03
  19 F= -.11617896E+04 E0= -.11617896E+04  d E =-.369644E-02  mag=     3.0000
       N       E                     dE             d eps       ncg     rms          rms(c)
DAV:   1    -0.116177093553E+04    0.18633E-01   -0.11326E+00  1984   0.289E+00    0.592E-01
RMM:   2    -0.116178860714E+04   -0.17672E-01   -0.17889E-01  1817   0.408E-01    0.394E-01
RMM:   3    -0.116179091300E+04   -0.23059E-02   -0.15589E-02  1805   0.147E-01    0.240E-01
RMM:   4    -0.116179171753E+04   -0.80453E-03   -0.30230E-03  1783   0.624E-02    0.146E-01
RMM:   5    -0.116179203321E+04   -0.31567E-03   -0.74212E-04  1747   0.332E-02    0.853E-02
RMM:   6    -0.116179237418E+04   -0.34098E-03   -0.36357E-04  1576   0.264E-02    0.292E-02
RMM:   7    -0.116179240801E+04   -0.33828E-04   -0.58692E-05  1677   0.117E-02    0.162E-02
RMM:   8    -0.116179240576E+04    0.22539E-05   -0.17891E-05  1605   0.553E-03    0.130E-02
RMM:   9    -0.116179241501E+04   -0.92501E-05   -0.11887E-05  1540   0.468E-03    0.508E-03
RMM:  10    -0.116179241690E+04   -0.18930E-05   -0.32970E-06  1198   0.257E-03    0.354E-03
RMM:  11    -0.116179241685E+04    0.50604E-07   -0.56464E-07  1028   0.112E-03
  20 F= -.11617924E+04 E0= -.11617924E+04  d E =-.284864E-02  mag=     3.0000
       N       E                     dE             d eps       ncg     rms          rms(c)
DAV:   1    -0.116178816485E+04    0.42521E-02   -0.24366E-01  2048   0.134E+00    0.275E-01
RMM:   2    -0.116179190187E+04   -0.37370E-02   -0.38491E-02  1815   0.189E-01    0.183E-01
RMM:   3    -0.116179238817E+04   -0.48631E-03   -0.33437E-03  1804   0.683E-02    0.112E-01
RMM:   4    -0.116179255752E+04   -0.16935E-03   -0.62797E-04  1775   0.292E-02    0.678E-02
RMM:   5    -0.116179265400E+04   -0.96476E-04   -0.18969E-04  1726   0.164E-02    0.382E-02
RMM:   6    -0.116179276047E+04   -0.10647E-03   -0.81903E-05  1580   0.123E-02    0.137E-02
RMM:   7    -0.116179277492E+04   -0.14448E-04   -0.13272E-05  1632   0.551E-03    0.753E-03
RMM:   8    -0.116179277498E+04   -0.57356E-07   -0.44372E-06  1216   0.261E-03
  21 F= -.11617928E+04 E0= -.11617928E+04  d E =-.320677E-02  mag=     3.0000
       N       E                     dE             d eps       ncg     rms          rms(c)
DAV:   1    -0.116178054703E+04    0.12228E-01   -0.88232E-01  1952   0.246E+00    0.483E-01
RMM:   2    -0.116179231971E+04   -0.11773E-01   -0.11988E-01  1817   0.343E-01    0.324E-01
RMM:   3    -0.116179382363E+04   -0.15039E-02   -0.10497E-02  1803   0.126E-01    0.202E-01
RMM:   4    -0.116179435665E+04   -0.53302E-03   -0.21236E-03  1777   0.542E-02    0.124E-01
RMM:   5    -0.116179455789E+04   -0.20124E-03   -0.56399E-04  1730   0.292E-02    0.709E-02
RMM:   6    -0.116179481939E+04   -0.26150E-03   -0.26580E-04  1589   0.226E-02    0.247E-02
RMM:   7    -0.116179484639E+04   -0.27004E-04   -0.43395E-05  1650   0.101E-02    0.134E-02
RMM:   8    -0.116179484581E+04    0.58452E-06   -0.14415E-05  1586   0.498E-03    0.106E-02
RMM:   9    -0.116179485453E+04   -0.87194E-05   -0.73630E-06  1509   0.371E-03    0.454E-03
RMM:  10    -0.116179485568E+04   -0.11511E-05   -0.21628E-06  1106   0.203E-03    0.305E-03
RMM:  11    -0.116179485583E+04   -0.14508E-06   -0.46335E-07  1025   0.101E-03
  22 F= -.11617949E+04 E0= -.11617949E+04  d E =-.208085E-02  mag=     3.0000
