       N       E                     dE             d eps       ncg     rms          rms(c)
DAV:   1     0.489436704384E+04    0.48944E+04   -0.18076E+05  1856   0.963E+02
DAV:   2    -0.451533931187E+02   -0.49395E+04   -0.45458E+04  2496   0.217E+02
DAV:   3    -0.120244656255E+04   -0.11573E+04   -0.11511E+04  1984   0.113E+02
DAV:   4    -0.125079361060E+04   -0.48347E+02   -0.48022E+02  1920   0.309E+01
DAV:   5    -0.125202422901E+04   -0.12306E+01   -0.12269E+01  2336   0.456E+00    0.729E+01
RMM:   6    -0.123252344725E+04    0.19501E+02   -0.21859E+01  1591   0.566E+00    0.521E+01
RMM:   7    -0.121855359940E+04    0.13970E+02   -0.10075E+01  1536   0.441E+00    0.425E+01
RMM:   8    -0.119089309203E+04    0.27661E+02   -0.38639E+01  1586   0.801E+00    0.263E+01
RMM:   9    -0.118282195330E+04    0.80711E+01   -0.20403E+01  1540   0.612E+00    0.189E+01
RMM:  10    -0.118285525870E+04   -0.33305E-01   -0.12667E+01  1544   0.485E+00    0.914E+00
RMM:  11    -0.118322850808E+04   -0.37325E+00   -0.20936E+00  1581   0.233E+00    0.685E+00
RMM:  12    -0.118262582449E+04    0.60268E+00   -0.11979E+00  1537   0.150E+00    0.265E+00
RMM:  13    -0.118251572417E+04    0.11010E+00   -0.45038E-01  1540   0.921E-01    0.210E+00
RMM:  14    -0.118250401681E+04    0.11707E-01   -0.55408E-02  1574   0.398E-01    0.857E-01
RMM:  15    -0.118250060484E+04    0.34120E-02   -0.29603E-02  1541   0.238E-01    0.668E-01
RMM:  16    -0.118249830217E+04    0.23027E-02   -0.11060E-02  1620   0.152E-01    0.396E-01
RMM:  17    -0.118249845154E+04   -0.14937E-03   -0.91296E-03  1609   0.120E-01    0.232E-01
RMM:  18    -0.118249900045E+04   -0.54892E-03   -0.26152E-03  1538   0.761E-02    0.190E-01
RMM:  19    -0.118249890897E+04    0.91485E-04   -0.62244E-04  1546   0.360E-02    0.128E-01
RMM:  20    -0.118249902748E+04   -0.11851E-03   -0.11899E-03  1569   0.411E-02    0.653E-02
RMM:  21    -0.118249896751E+04    0.59975E-04   -0.16986E-04  1587   0.200E-02    0.421E-02
RMM:  22    -0.118249897922E+04   -0.11712E-04   -0.75311E-05  1584   0.107E-02    0.360E-02
RMM:  23    -0.118249898529E+04   -0.60679E-05   -0.18137E-05  1651   0.554E-03    0.206E-02
RMM:  24    -0.118249898541E+04   -0.11973E-06   -0.78114E-06  1462   0.342E-03
   1 F= -.11896239E+04 E0= -.11896238E+04  d E =-.118962E+04  mag=     2.9999
       N       E                     dE             d eps       ncg     rms          rms(c)
DAV:   1    -0.118249538118E+04    0.36041E-02   -0.52555E-01  1632   0.122E+00    0.187E-01
RMM:   2    -0.118249661347E+04   -0.12323E-02   -0.14771E-02  1553   0.193E-01    0.181E-01
RMM:   3    -0.118249676007E+04   -0.14660E-03   -0.27302E-03  1745   0.793E-02    0.165E-01
RMM:   4    -0.118249652990E+04    0.23017E-03   -0.61351E-04  1649   0.361E-02    0.129E-01
RMM:   5    -0.118249645497E+04    0.74925E-04   -0.13608E-03  1562   0.447E-02    0.623E-02
RMM:   6    -0.118249647453E+04   -0.19561E-04   -0.24340E-04  1811   0.230E-02    0.564E-02
RMM:   7    -0.118249642432E+04    0.50218E-04   -0.70030E-05  1555   0.108E-02    0.338E-02
RMM:   8    -0.118249642341E+04    0.90502E-06   -0.60452E-05  1567   0.907E-03    0.161E-02
RMM:   9    -0.118249642318E+04    0.23450E-06   -0.17938E-05  1767   0.559E-03    0.929E-03
RMM:  10    -0.118249642299E+04    0.19243E-06   -0.94166E-06  1504   0.379E-03
   2 F= -.11896219E+04 E0= -.11896219E+04  d E =0.191971E-02  mag=     2.9998
       N       E                     dE             d eps       ncg     rms          rms(c)
DAV:   1    -0.118249906630E+04   -0.26431E-02   -0.24184E-01  1696   0.825E-01    0.128E-01
RMM:   2    -0.118249947501E+04   -0.40871E-03   -0.54206E-03  1544   0.126E-01    0.123E-01
RMM:   3    -0.118249949084E+04   -0.15826E-04   -0.86058E-04  1632   0.495E-02    0.109E-01
RMM:   4    -0.118249937504E+04    0.11580E-03   -0.31740E-04  1631   0.258E-02    0.765E-02
RMM:   5    -0.118249936422E+04    0.10825E-04   -0.45630E-04  1567   0.265E-02    0.384E-02
RMM:   6    -0.118249936613E+04   -0.19106E-05   -0.67198E-05  1780   0.127E-02    0.330E-02
RMM:   7    -0.118249935217E+04    0.13958E-04   -0.48545E-05  1538   0.822E-03    0.137E-02
RMM:   8    -0.118249935458E+04   -0.24169E-05   -0.76997E-06  1551   0.415E-03    0.917E-03
RMM:   9    -0.118249935399E+04    0.59067E-06   -0.64213E-06  1454   0.317E-03
   3 F= -.11896244E+04 E0= -.11896244E+04  d E =-.574993E-03  mag=     2.9999
       N       E                     dE             d eps       ncg     rms          rms(c)
DAV:   1    -0.118249885652E+04    0.49807E-03   -0.23396E-01  1792   0.748E-01    0.130E-01
RMM:   2    -0.118249922291E+04   -0.36639E-03   -0.51366E-03  1561   0.105E-01    0.115E-01
RMM:   3    -0.118249927329E+04   -0.50387E-04   -0.79323E-04  1605   0.407E-02    0.939E-02
RMM:   4    -0.118249929113E+04   -0.17831E-04   -0.17081E-04  1691   0.189E-02    0.670E-02
RMM:   5    -0.118249931710E+04   -0.25973E-04   -0.12433E-04  1571   0.148E-02    0.348E-02
RMM:   6    -0.118249934059E+04   -0.23494E-04   -0.27799E-05  1670   0.787E-03    0.233E-02
RMM:   7    -0.118249934930E+04   -0.87049E-05   -0.11047E-05  1512   0.465E-03    0.103E-02
RMM:   8    -0.118249934988E+04   -0.58580E-06   -0.40833E-06  1223   0.256E-03
   4 F= -.11896249E+04 E0= -.11896249E+04  d E =-.462585E-03  mag=     2.9998
       N       E                     dE             d eps       ncg     rms          rms(c)
DAV:   1    -0.118249942752E+04   -0.78226E-04   -0.59647E-03  1728   0.120E-01    0.210E-02
RMM:   2    -0.118249943643E+04   -0.89110E-05   -0.12884E-04  1561   0.166E-02    0.182E-02
RMM:   3    -0.118249943754E+04   -0.11072E-05   -0.19925E-05  1500   0.648E-03    0.148E-02
RMM:   4    -0.118249943772E+04   -0.17443E-06   -0.46564E-06  1173   0.320E-03
   5 F= -.11896249E+04 E0= -.11896249E+04  d E =-.475401E-03  mag=     2.9998
       N       E                     dE             d eps       ncg     rms          rms(c)
DAV:   1    -0.118249928517E+04    0.15238E-03   -0.82145E-02  1728   0.486E-01    0.884E-02
RMM:   2    -0.118249952757E+04   -0.24241E-03   -0.31237E-03  1574   0.679E-02    0.654E-02
RMM:   3    -0.118249960761E+04   -0.80034E-04   -0.61791E-04  1616   0.259E-02    0.468E-02
RMM:   4    -0.118249963286E+04   -0.25250E-04   -0.73171E-05  1744   0.102E-02    0.355E-02
RMM:   5    -0.118249965099E+04   -0.18127E-04   -0.17756E-05  1496   0.592E-03    0.218E-02
RMM:   6    -0.118249966345E+04   -0.12465E-04   -0.78663E-06  1474   0.397E-03    0.134E-02
RMM:   7    -0.118249967115E+04   -0.76949E-05   -0.39012E-06  1126   0.288E-03    0.517E-03
RMM:   8    -0.118249967158E+04   -0.43555E-06   -0.81973E-07  1022   0.137E-03
   6 F= -.11896253E+04 E0= -.11896253E+04  d E =-.438636E-03  mag=     2.9998
       N       E                     dE             d eps       ncg     rms          rms(c)
DAV:   1    -0.118249844189E+04    0.12293E-02   -0.25377E-01  1728   0.855E-01    0.154E-01
RMM:   2    -0.118249923284E+04   -0.79095E-03   -0.96362E-03  1574   0.119E-01    0.117E-01
RMM:   3    -0.118249944804E+04   -0.21520E-03   -0.18367E-03  1626   0.453E-02    0.870E-02
RMM:   4    -0.118249951372E+04   -0.65678E-04   -0.26773E-04  1785   0.184E-02    0.660E-02
RMM:   5    -0.118249955938E+04   -0.45664E-04   -0.53218E-05  1556   0.102E-02    0.406E-02
RMM:   6    -0.118249959393E+04   -0.34544E-04   -0.20512E-05  1559   0.646E-03    0.271E-02
RMM:   7    -0.118249962410E+04   -0.30175E-04   -0.12661E-05  1536   0.531E-03    0.911E-03
RMM:   8    -0.118249962556E+04   -0.14575E-05   -0.23541E-06  1065   0.229E-03    0.636E-03
RMM:   9    -0.118249962530E+04    0.25781E-06   -0.73461E-07  1012   0.127E-03
   7 F= -.11896257E+04 E0= -.11896256E+04  d E =-.753739E-03  mag=     2.9998
       N       E                     dE             d eps       ncg     rms          rms(c)
DAV:   1    -0.118249944780E+04    0.17775E-03   -0.68413E-02  1760   0.474E-01    0.878E-02
RMM:   2    -0.118249971154E+04   -0.26373E-03   -0.33339E-03  1568   0.663E-02    0.627E-02
RMM:   3    -0.118249980097E+04   -0.89429E-04   -0.65847E-04  1615   0.251E-02    0.460E-02
RMM:   4    -0.118249982551E+04   -0.24543E-04   -0.63472E-05  1763   0.955E-03    0.347E-02
RMM:   5    -0.118249984553E+04   -0.20016E-04   -0.16326E-05  1500   0.540E-03    0.218E-02
RMM:   6    -0.118249985901E+04   -0.13484E-04   -0.58592E-06  1347   0.350E-03    0.140E-02
RMM:   7    -0.118249986986E+04   -0.10849E-04   -0.38668E-06  1126   0.289E-03    0.500E-03
RMM:   8    -0.118249987046E+04   -0.59518E-06   -0.68169E-07  1018   0.129E-03
   8 F= -.11896261E+04 E0= -.11896261E+04  d E =-.409124E-03  mag=     2.9998
       N       E                     dE             d eps       ncg     rms          rms(c)
DAV:   1    -0.118249884938E+04    0.10205E-02   -0.20779E-01  1792   0.831E-01    0.152E-01
RMM:   2    -0.118249965085E+04   -0.80147E-03   -0.95441E-03  1568   0.114E-01    0.110E-01
RMM:   3    -0.118249988812E+04   -0.23727E-03   -0.18713E-03  1612   0.429E-02    0.818E-02
RMM:   4    -0.118249994011E+04   -0.51990E-04   -0.17190E-04  1816   0.162E-02    0.618E-02
RMM:   5    -0.118249998656E+04   -0.46452E-04   -0.43011E-05  1554   0.912E-03    0.388E-02
RMM:   6    -0.118250002334E+04   -0.36778E-04   -0.17313E-05  1533   0.599E-03    0.251E-02
RMM:   7    -0.118250005720E+04   -0.33855E-04   -0.12633E-05  1535   0.528E-03    0.836E-03
RMM:   8    -0.118250005882E+04   -0.16217E-05   -0.20518E-06  1056   0.222E-03    0.557E-03
RMM:   9    -0.118250005866E+04    0.15546E-06   -0.11666E-06  1024   0.150E-03
   9 F= -.11896265E+04 E0= -.11896265E+04  d E =-.885932E-03  mag=     2.9998
       N       E                     dE             d eps       ncg     rms          rms(c)
DAV:   1    -0.118249442576E+04    0.56331E-02   -0.83096E-01  1696   0.166E+00    0.304E-01
RMM:   2    -0.118249787173E+04   -0.34460E-02   -0.38091E-02  1568   0.227E-01    0.219E-01
RMM:   3    -0.118249881594E+04   -0.94422E-03   -0.75069E-03  1611   0.857E-02    0.162E-01
RMM:   4    -0.118249895180E+04   -0.13586E-03   -0.64298E-04  1840   0.321E-02    0.123E-01
RMM:   5    -0.118249902800E+04   -0.76205E-04   -0.15453E-04  1576   0.174E-02    0.772E-02
RMM:   6    -0.118249911232E+04   -0.84319E-04   -0.67691E-05  1566   0.117E-02    0.503E-02
RMM:   7    -0.118249922500E+04   -0.11267E-03   -0.51552E-05  1556   0.106E-02    0.168E-02
RMM:   8    -0.118249923193E+04   -0.69295E-05   -0.84427E-06  1509   0.441E-03    0.117E-02
RMM:   9    -0.118249923151E+04    0.41489E-06   -0.61107E-06  1393   0.325E-03
  10 F= -.11896263E+04 E0= -.11896263E+04  d E =-.640694E-03  mag=     2.9998
       N       E                     dE             d eps       ncg     rms          rms(c)
DAV:   1    -0.118249781516E+04    0.14168E-02   -0.37229E-01  1664   0.111E+00    0.203E-01
RMM:   2    -0.118249930984E+04   -0.14947E-02   -0.17119E-02  1569   0.153E-01    0.148E-01
RMM:   3    -0.118249972636E+04   -0.41652E-03   -0.33628E-03  1615   0.573E-02    0.111E-01
RMM:   4    -0.118249980079E+04   -0.74426E-04   -0.27647E-04  1817   0.214E-02    0.838E-02
RMM:   5    -0.118249985375E+04   -0.52965E-04   -0.74909E-05  1560   0.122E-02    0.519E-02
RMM:   6    -0.118249990311E+04   -0.49364E-04   -0.33029E-05  1557   0.819E-03    0.333E-02
RMM:   7    -0.118249995958E+04   -0.56467E-04   -0.23556E-05  1558   0.713E-03    0.116E-02
RMM:   8    -0.118249996287E+04   -0.32878E-05   -0.38228E-06  1154   0.300E-03    0.801E-03
RMM:   9    -0.118249996304E+04   -0.17072E-06   -0.21775E-06  1064   0.203E-03
  11 F= -.11896266E+04 E0= -.11896266E+04  d E =-.981600E-03  mag=     2.9998
