       N       E                     dE             d eps       ncg     rms          rms(c)
DAV:   1     0.494149816961E+04    0.49415E+04   -0.17335E+05  1872   0.914E+02
DAV:   2    -0.269022482167E+02   -0.49684E+04   -0.45280E+04  2520   0.214E+02
DAV:   3    -0.118403809139E+04   -0.11571E+04   -0.11517E+04  2124   0.113E+02
DAV:   4    -0.123994883186E+04   -0.55911E+02   -0.55597E+02  2052   0.355E+01
DAV:   5    -0.124203830468E+04   -0.20895E+01   -0.20796E+01  2340   0.602E+00    0.708E+01
RMM:   6    -0.122737456440E+04    0.14664E+02   -0.89049E+00  1795   0.366E+00    0.584E+01
RMM:   7    -0.118615202424E+04    0.41223E+02   -0.10068E+02  1881   0.121E+01    0.344E+01
RMM:   8    -0.118063682047E+04    0.55152E+01   -0.81795E+00  1943   0.798E+00    0.255E+01
RMM:   9    -0.117677544501E+04    0.38614E+01   -0.17698E+01  1675   0.501E+00    0.175E+01
RMM:  10    -0.117714977152E+04   -0.37433E+00   -0.11626E+01  1897   0.670E+00    0.103E+01
RMM:  11    -0.117657663560E+04    0.57314E+00   -0.19552E+00  1940   0.207E+00    0.645E+00
RMM:  12    -0.117610479348E+04    0.47184E+00   -0.49738E-01  1786   0.119E+00    0.513E+00
RMM:  13    -0.117574978475E+04    0.35501E+00   -0.12874E+00  1748   0.145E+00    0.108E+00
RMM:  14    -0.117575146533E+04   -0.16806E-02   -0.14340E-01  1749   0.130E+00    0.142E+00
RMM:  15    -0.117575217402E+04   -0.70869E-03   -0.30485E-02  1947   0.262E-01    0.119E+00
RMM:  16    -0.117575059217E+04    0.15819E-02   -0.20484E-02  1783   0.233E-01    0.866E-01
RMM:  17    -0.117575064770E+04   -0.55527E-04   -0.79896E-03  1722   0.166E-01    0.548E-01
RMM:  18    -0.117575055813E+04    0.89571E-04   -0.14634E-03  1598   0.103E-01    0.521E-01
RMM:  19    -0.117575039290E+04    0.16523E-03   -0.45023E-04  1262   0.485E-02    0.407E-01
RMM:  20    -0.117575028888E+04    0.10402E-03   -0.30327E-04  1190   0.377E-02    0.295E-01
RMM:  21    -0.117575032882E+04   -0.39933E-04   -0.32596E-04  1216   0.384E-02
   1 F= -.11828751E+04 E0= -.11828751E+04  d E =-.118288E+04  mag=     0.0009
       N       E                     dE             d eps       ncg     rms          rms(c)
DAV:   1    -0.117575053123E+04   -0.24234E-03   -0.23980E-01  1764   0.816E-01    0.221E-01
RMM:   2    -0.117575109326E+04   -0.56203E-03   -0.88606E-03  1908   0.140E-01    0.200E-01
RMM:   3    -0.117575076065E+04    0.33260E-03   -0.88119E-04  1521   0.911E-02    0.163E-01
RMM:   4    -0.117575043452E+04    0.32614E-03   -0.78268E-04  1558   0.465E-02    0.929E-02
RMM:   5    -0.117575044441E+04   -0.98903E-05   -0.72787E-04  1580   0.585E-02
   2 F= -.11828754E+04 E0= -.11828754E+04  d E =-.238308E-03  mag=    -0.0002
       N       E                     dE             d eps       ncg     rms          rms(c)
DAV:   1    -0.117575106254E+04   -0.62803E-03   -0.46216E-02  1800   0.356E-01    0.834E-02
RMM:   2    -0.117575107887E+04   -0.16326E-04   -0.13323E-03  1691   0.560E-02    0.778E-02
RMM:   3    -0.117575096176E+04    0.11711E-03   -0.13993E-04  1025   0.476E-02    0.583E-02
RMM:   4    -0.117575084483E+04    0.11693E-03   -0.35066E-04  1380   0.260E-02    0.319E-02
RMM:   5    -0.117575084258E+04    0.22520E-05   -0.87309E-05   998   0.387E-02
   3 F= -.11828757E+04 E0= -.11828757E+04  d E =-.582911E-03  mag=     0.0000
