       N       E                     dE             d eps       ncg     rms          rms(c)
DAV:   1     0.469958955055E+04    0.46996E+04   -0.17540E+05  1856   0.935E+02
DAV:   2    -0.748291108346E+02   -0.47744E+04   -0.43461E+04  2400   0.212E+02
DAV:   3    -0.118484222659E+04   -0.11100E+04   -0.11025E+04  2016   0.110E+02
DAV:   4    -0.123112070721E+04   -0.46278E+02   -0.45998E+02  1952   0.297E+01
DAV:   5    -0.123228726494E+04   -0.11666E+01   -0.11636E+01  2368   0.434E+00    0.756E+01
RMM:   6    -0.122046770287E+04    0.11820E+02   -0.70191E+01  1676   0.838E+00    0.685E+01
RMM:   7    -0.120469816102E+04    0.15770E+02   -0.80772E+00  1563   0.394E+00    0.465E+01
RMM:   8    -0.119245490008E+04    0.12243E+02   -0.90969E+00  1543   0.393E+00    0.376E+01
RMM:   9    -0.116591470642E+04    0.26540E+02   -0.55336E+01  1898   0.902E+00    0.216E+01
RMM:  10    -0.116424920579E+04    0.16655E+01   -0.17116E+01  1557   0.545E+00    0.119E+01
RMM:  11    -0.116521519174E+04   -0.96599E+00   -0.34776E+00  1560   0.277E+00    0.761E+00
RMM:  12    -0.116461724885E+04    0.59794E+00   -0.14855E+00  1589   0.159E+00    0.422E+00
RMM:  13    -0.116461405193E+04    0.31969E-02   -0.23234E-01  1584   0.694E-01    0.282E+00
RMM:  14    -0.116452551549E+04    0.88536E-01   -0.12801E-01  1558   0.510E-01    0.162E+00
RMM:  15    -0.116451312020E+04    0.12395E-01   -0.21081E-01  1572   0.602E-01    0.878E-01
RMM:  16    -0.116451019317E+04    0.29270E-02   -0.19939E-02  1559   0.219E-01    0.406E-01
RMM:  17    -0.116450847505E+04    0.17181E-02   -0.74847E-03  1577   0.115E-01    0.209E-01
RMM:  18    -0.116450860002E+04   -0.12497E-03   -0.17498E-03  1647   0.648E-02    0.114E-01
RMM:  19    -0.116450879797E+04   -0.19796E-03   -0.89204E-04  1756   0.400E-02    0.880E-02
RMM:  20    -0.116450878021E+04    0.17761E-04   -0.36369E-04  1560   0.255E-02    0.463E-02
RMM:  21    -0.116450882415E+04   -0.43939E-04   -0.73463E-05  1712   0.127E-02    0.315E-02
RMM:  22    -0.116450883636E+04   -0.12212E-04   -0.23438E-05  1624   0.751E-03    0.176E-02
RMM:  23    -0.116450883896E+04   -0.25977E-05   -0.11219E-05  1611   0.492E-03    0.914E-03
RMM:  24    -0.116450884137E+04   -0.24063E-05   -0.28947E-06  1137   0.250E-03    0.530E-03
RMM:  25    -0.116450884030E+04    0.10629E-05   -0.13088E-06  1045   0.160E-03    0.337E-03
RMM:  26    -0.116450884036E+04   -0.54002E-07   -0.51136E-07  1017   0.119E-03
   1 F= -.11645088E+04 E0= -.11645088E+04  d E =-.116451E+04  mag=     3.9999
       N       E                     dE             d eps       ncg     rms          rms(c)
DAV:   1    -0.116442675982E+04    0.82080E-01   -0.11038E+01  1760   0.684E+00    0.134E+00
RMM:   2    -0.116448056820E+04   -0.53808E-01   -0.52725E-01  1725   0.109E+00    0.116E+00
RMM:   3    -0.116449718204E+04   -0.16614E-01   -0.15531E-01  1834   0.436E-01    0.866E-01
RMM:   4    -0.116449800540E+04   -0.82336E-03   -0.18791E-02  1921   0.170E-01    0.700E-01
RMM:   5    -0.116449605348E+04    0.19519E-02   -0.71421E-03  1601   0.111E-01    0.382E-01
RMM:   6    -0.116449559316E+04    0.46032E-03   -0.40565E-03  1595   0.823E-02    0.245E-01
RMM:   7    -0.116449566472E+04   -0.71556E-04   -0.11577E-03  1682   0.487E-02    0.158E-01
RMM:   8    -0.116449571199E+04   -0.47270E-04   -0.33547E-04  1677   0.254E-02    0.920E-02
RMM:   9    -0.116449565022E+04    0.61773E-04   -0.19001E-04  1546   0.197E-02    0.763E-02
RMM:  10    -0.116449566509E+04   -0.14871E-04   -0.50362E-05  1697   0.100E-02    0.346E-02
RMM:  11    -0.116449566379E+04    0.12972E-05   -0.14587E-05  1622   0.499E-03    0.235E-02
RMM:  12    -0.116449566041E+04    0.33794E-05   -0.10362E-05  1482   0.431E-03    0.134E-02
RMM:  13    -0.116449566000E+04    0.41369E-06   -0.54654E-06  1391   0.300E-03
   2 F= -.11644957E+04 E0= -.11644957E+04  d E =0.131804E-01  mag=     4.0000
       N       E                     dE             d eps       ncg     rms          rms(c)
DAV:   1    -0.116449944612E+04   -0.37857E-02   -0.37617E+00  1792   0.396E+00    0.786E-01
RMM:   2    -0.116451774690E+04   -0.18301E-01   -0.17891E-01  1697   0.634E-01    0.675E-01
RMM:   3    -0.116452335328E+04   -0.56064E-02   -0.52923E-02  1811   0.254E-01    0.489E-01
RMM:   4    -0.116452357849E+04   -0.22520E-03   -0.57088E-03  1906   0.941E-02    0.403E-01
RMM:   5    -0.116452294444E+04    0.63405E-03   -0.23710E-03  1591   0.643E-02    0.217E-01
RMM:   6    -0.116452282721E+04    0.11722E-03   -0.13169E-03  1593   0.463E-02    0.143E-01
RMM:   7    -0.116452284738E+04   -0.20170E-04   -0.33993E-04  1756   0.255E-02    0.980E-02
RMM:   8    -0.116452286919E+04   -0.21806E-04   -0.10811E-04  1632   0.140E-02    0.576E-02
RMM:   9    -0.116452285285E+04    0.16343E-04   -0.63044E-05  1543   0.114E-02    0.468E-02
RMM:  10    -0.116452286040E+04   -0.75487E-05   -0.19124E-05  1640   0.605E-03    0.209E-02
RMM:  11    -0.116452286120E+04   -0.80618E-06   -0.50110E-06  1307   0.299E-03
   3 F= -.11645229E+04 E0= -.11645229E+04  d E =-.140208E-01  mag=     4.0000
       N       E                     dE             d eps       ncg     rms          rms(c)
DAV:   1    -0.116447406136E+04    0.48799E-01   -0.44672E+00  1792   0.516E+00    0.114E+00
RMM:   2    -0.116451422969E+04   -0.40168E-01   -0.38343E-01  1752   0.775E-01    0.785E-01
RMM:   3    -0.116452833929E+04   -0.14110E-01   -0.11798E-01  1794   0.315E-01    0.439E-01
RMM:   4    -0.116452924995E+04   -0.91066E-03   -0.10858E-02  1886   0.119E-01    0.345E-01
RMM:   5    -0.116452879079E+04    0.45916E-03   -0.23233E-03  1639   0.625E-02    0.196E-01
RMM:   6    -0.116452861245E+04    0.17834E-03   -0.13474E-03  1601   0.480E-02    0.114E-01
RMM:   7    -0.116452867371E+04   -0.61263E-04   -0.40670E-04  1626   0.298E-02    0.537E-02
RMM:   8    -0.116452867732E+04   -0.36040E-05   -0.10245E-04  1808   0.146E-02    0.384E-02
RMM:   9    -0.116452865578E+04    0.21536E-04   -0.41147E-05  1581   0.837E-03    0.266E-02
RMM:  10    -0.116452866004E+04   -0.42588E-05   -0.31059E-05  1601   0.726E-03    0.109E-02
RMM:  11    -0.116452865953E+04    0.51254E-06   -0.35751E-06  1195   0.306E-03
   4 F= -.11645287E+04 E0= -.11645287E+04  d E =-.579832E-02  mag=     4.0000
       N       E                     dE             d eps       ncg     rms          rms(c)
DAV:   1    -0.116452447086E+04    0.41892E-02   -0.50852E-01  1856   0.174E+00    0.381E-01
RMM:   2    -0.116452897348E+04   -0.45026E-02   -0.43306E-02  1744   0.261E-01    0.267E-01
RMM:   3    -0.116453063038E+04   -0.16569E-02   -0.13426E-02  1793   0.106E-01    0.143E-01
RMM:   4    -0.116453072165E+04   -0.91276E-04   -0.11801E-03  1899   0.396E-02    0.114E-01
RMM:   5    -0.116453066616E+04    0.55494E-04   -0.28964E-04  1625   0.220E-02    0.602E-02
RMM:   6    -0.116453065615E+04    0.10009E-04   -0.18535E-04  1597   0.175E-02    0.307E-02
RMM:   7    -0.116453066671E+04   -0.10557E-04   -0.32192E-05  1668   0.874E-03    0.189E-02
RMM:   8    -0.116453066545E+04    0.12530E-05   -0.10894E-05  1546   0.452E-03    0.128E-02
RMM:   9    -0.116453066504E+04    0.41931E-06   -0.62484E-06  1421   0.313E-03
   5 F= -.11645307E+04 E0= -.11645307E+04  d E =-.780383E-02  mag=     4.0000
       N       E                     dE             d eps       ncg     rms          rms(c)
DAV:   1    -0.116446502425E+04    0.65641E-01   -0.32334E+00  1920   0.505E+00    0.125E+00
RMM:   2    -0.116451713580E+04   -0.52112E-01   -0.47897E-01  1731   0.729E-01    0.797E-01
RMM:   3    -0.116453752479E+04   -0.20389E-01   -0.15458E-01  1791   0.294E-01    0.326E-01
RMM:   4    -0.116453850011E+04   -0.97532E-03   -0.10276E-02  1903   0.989E-02    0.275E-01
RMM:   5    -0.116453829191E+04    0.20820E-03   -0.12935E-03  1656   0.445E-02    0.164E-01
RMM:   6    -0.116453811631E+04    0.17560E-03   -0.78313E-04  1595   0.355E-02    0.941E-02
RMM:   7    -0.116453816716E+04   -0.50851E-04   -0.17914E-04  1609   0.205E-02    0.400E-02
RMM:   8    -0.116453818314E+04   -0.15974E-04   -0.69043E-05  1745   0.112E-02    0.308E-02
RMM:   9    -0.116453818343E+04   -0.28919E-06   -0.19593E-05  1606   0.626E-03    0.159E-02
RMM:  10    -0.116453818764E+04   -0.42131E-05   -0.75989E-06  1497   0.393E-03    0.836E-03
RMM:  11    -0.116453818798E+04   -0.33838E-06   -0.20652E-06  1113   0.202E-03
   6 F= -.11645382E+04 E0= -.11645382E+04  d E =-.752294E-02  mag=     4.0000
       N       E                     dE             d eps       ncg     rms          rms(c)
DAV:   1    -0.116453810467E+04    0.82974E-04   -0.42021E-03  1920   0.181E-01    0.438E-02
RMM:   2    -0.116453816606E+04   -0.61392E-04   -0.62250E-04  1739   0.263E-02    0.283E-02
RMM:   3    -0.116453819599E+04   -0.29934E-04   -0.19667E-04  1700   0.107E-02    0.115E-02
RMM:   4    -0.116453819808E+04   -0.20843E-05   -0.17378E-05  1283   0.388E-03    0.102E-02
RMM:   5    -0.116453819724E+04    0.83414E-06   -0.34838E-06  1152   0.228E-03
   7 F= -.11645382E+04 E0= -.11645382E+04  d E =-.753221E-02  mag=     4.0000
       N       E                     dE             d eps       ncg     rms          rms(c)
DAV:   1    -0.116446531783E+04    0.72880E-01   -0.35331E+00  2048   0.536E+00    0.127E+00
RMM:   2    -0.116452240690E+04   -0.57089E-01   -0.51663E-01  1717   0.741E-01    0.821E-01
RMM:   3    -0.116454242517E+04   -0.20018E-01   -0.13764E-01  1792   0.286E-01    0.364E-01
RMM:   4    -0.116454387584E+04   -0.14507E-02   -0.11368E-02  1887   0.954E-02    0.254E-01
RMM:   5    -0.116454391808E+04   -0.42243E-04   -0.12356E-03  1706   0.405E-02    0.147E-01
RMM:   6    -0.116454383339E+04    0.84693E-04   -0.35870E-04  1663   0.241E-02    0.101E-01
RMM:   7    -0.116454385019E+04   -0.16800E-04   -0.32283E-04  1588   0.237E-02    0.357E-02
RMM:   8    -0.116454385730E+04   -0.71146E-05   -0.40025E-05  1748   0.998E-03    0.255E-02
RMM:   9    -0.116454385453E+04    0.27683E-05   -0.13113E-05  1507   0.498E-03    0.181E-02
RMM:  10    -0.116454386372E+04   -0.91895E-05   -0.95215E-06  1512   0.438E-03    0.703E-03
RMM:  11    -0.116454386385E+04   -0.12537E-06   -0.17553E-06  1078   0.192E-03
   8 F= -.11645439E+04 E0= -.11645439E+04  d E =-.566661E-02  mag=     4.0000
       N       E                     dE             d eps       ncg     rms          rms(c)
DAV:   1    -0.116454386088E+04    0.28451E-05   -0.92011E-05  1984   0.291E-02    0.750E-03
RMM:   2    -0.116454386282E+04   -0.19459E-05   -0.18910E-05  1208   0.414E-03    0.438E-03
RMM:   3    -0.116454386351E+04   -0.68975E-06   -0.33988E-06  1068   0.149E-03
   9 F= -.11645439E+04 E0= -.11645439E+04  d E =-.566627E-02  mag=     4.0000
       N       E                     dE             d eps       ncg     rms          rms(c)
DAV:   1    -0.116448030809E+04    0.63555E-01   -0.23356E+00  1952   0.448E+00    0.119E+00
RMM:   2    -0.116452802118E+04   -0.47713E-01   -0.43250E-01  1713   0.636E-01    0.754E-01
RMM:   3    -0.116454731867E+04   -0.19297E-01   -0.13972E-01  1787   0.250E-01    0.270E-01
RMM:   4    -0.116454803182E+04   -0.71315E-03   -0.79715E-03  1930   0.802E-02    0.233E-01
RMM:   5    -0.116454797860E+04    0.53213E-04   -0.10453E-03  1694   0.363E-02    0.127E-01
RMM:   6    -0.116454791851E+04    0.60093E-04   -0.47434E-04  1627   0.267E-02    0.656E-02
RMM:   7    -0.116454798687E+04   -0.68355E-04   -0.70511E-05  1636   0.131E-02    0.365E-02
RMM:   8    -0.116454799954E+04   -0.12676E-04   -0.30751E-05  1622   0.722E-03    0.238E-02
RMM:   9    -0.116454801291E+04   -0.13363E-04   -0.11932E-05  1637   0.497E-03    0.141E-02
RMM:  10    -0.116454801396E+04   -0.10565E-05   -0.42797E-06  1180   0.281E-03    0.663E-03
RMM:  11    -0.116454801427E+04   -0.31105E-06   -0.12103E-06  1043   0.156E-03
  10 F= -.11645480E+04 E0= -.11645480E+04  d E =-.415076E-02  mag=     4.0000
       N       E                     dE             d eps       ncg     rms          rms(c)
DAV:   1    -0.116454781712E+04    0.19685E-03   -0.71249E-03  1984   0.248E-01    0.655E-02
RMM:   2    -0.116454795280E+04   -0.13568E-03   -0.13242E-03  1721   0.350E-02    0.417E-02
RMM:   3    -0.116454801989E+04   -0.67089E-04   -0.42998E-04  1722   0.138E-02    0.141E-02
RMM:   4    -0.116454802327E+04   -0.33808E-05   -0.25037E-05  1331   0.449E-03    0.124E-02
RMM:   5    -0.116454802333E+04   -0.63163E-07   -0.55509E-06  1205   0.256E-03
  11 F= -.11645480E+04 E0= -.11645480E+04  d E =-.415982E-02  mag=     4.0000
       N       E                     dE             d eps       ncg     rms          rms(c)
DAV:   1    -0.116451076629E+04    0.37257E-01   -0.14731E+00  1920   0.351E+00    0.903E-01
RMM:   2    -0.116453868882E+04   -0.27923E-01   -0.25466E-01  1713   0.497E-01    0.578E-01
RMM:   3    -0.116454986529E+04   -0.11176E-01   -0.81403E-02  1782   0.197E-01    0.214E-01
RMM:   4    -0.116455027683E+04   -0.41154E-03   -0.48060E-03  1889   0.662E-02    0.185E-01
RMM:   5    -0.116455015671E+04    0.12011E-03   -0.85509E-04  1655   0.342E-02    0.887E-02
RMM:   6    -0.116455013429E+04    0.22427E-04   -0.31483E-04  1608   0.229E-02    0.473E-02
RMM:   7    -0.116455018330E+04   -0.49018E-04   -0.53128E-05  1622   0.114E-02    0.289E-02
RMM:   8    -0.116455019471E+04   -0.11406E-04   -0.24221E-05  1581   0.667E-03    0.177E-02
RMM:   9    -0.116455020378E+04   -0.90712E-05   -0.91530E-06  1650   0.427E-03    0.112E-02
RMM:  10    -0.116455020403E+04   -0.25034E-06   -0.37790E-06  1156   0.269E-03
  12 F= -.11645502E+04 E0= -.11645502E+04  d E =-.218070E-02  mag=     4.0000
       N       E                     dE             d eps       ncg     rms          rms(c)
DAV:   1    -0.116454973995E+04    0.46383E-03   -0.18492E-02  2016   0.392E-01    0.102E-01
RMM:   2    -0.116455007210E+04   -0.33214E-03   -0.31808E-03  1716   0.556E-02    0.651E-02
RMM:   3    -0.116455022625E+04   -0.15415E-03   -0.10261E-03  1777   0.220E-02    0.227E-02
RMM:   4    -0.116455023258E+04   -0.63316E-05   -0.56751E-05  1549   0.739E-03    0.199E-02
RMM:   5    -0.116455022995E+04    0.26326E-05   -0.14311E-05  1539   0.439E-03    0.815E-03
RMM:   6    -0.116455023168E+04   -0.17367E-05   -0.32428E-06  1150   0.237E-03    0.458E-03
RMM:   7    -0.116455023325E+04   -0.15694E-05   -0.61631E-07  1010   0.123E-03    0.303E-03
RMM:   8    -0.116455023350E+04   -0.24326E-06   -0.31802E-07   992   0.820E-04
  13 F= -.11645502E+04 E0= -.11645502E+04  d E =-.221017E-02  mag=     4.0000
       N       E                     dE             d eps       ncg     rms          rms(c)
DAV:   1    -0.116452715215E+04    0.23081E-01   -0.98093E-01  1920   0.280E+00    0.711E-01
RMM:   2    -0.116454454571E+04   -0.17394E-01   -0.15885E-01  1723   0.399E-01    0.454E-01
RMM:   3    -0.116455153139E+04   -0.69857E-02   -0.50636E-02  1765   0.159E-01    0.167E-01
RMM:   4    -0.116455179097E+04   -0.25958E-03   -0.29904E-03  1935   0.540E-02    0.145E-01
RMM:   5    -0.116455171300E+04    0.77971E-04   -0.55535E-04  1640   0.281E-02    0.642E-02
RMM:   6    -0.116455171852E+04   -0.55169E-05   -0.18491E-04  1616   0.177E-02    0.350E-02
RMM:   7    -0.116455175344E+04   -0.34921E-04   -0.31574E-05  1586   0.870E-03    0.216E-02
RMM:   8    -0.116455176175E+04   -0.83053E-05   -0.14261E-05  1574   0.500E-03    0.135E-02
RMM:   9    -0.116455176867E+04   -0.69254E-05   -0.59421E-06  1467   0.333E-03    0.864E-03
RMM:  10    -0.116455176882E+04   -0.14807E-06   -0.20678E-06  1058   0.205E-03
  14 F= -.11645518E+04 E0= -.11645518E+04  d E =-.153532E-02  mag=     4.0000
       N       E                     dE             d eps       ncg     rms          rms(c)
DAV:   1    -0.116455176882E+04   -0.14751E-06   -0.23572E-07  1472   0.384E-03    0.262E-03
RMM:   2    -0.116455176899E+04   -0.16747E-06   -0.41814E-07   984   0.927E-04
  15 F= -.11645518E+04 E0= -.11645518E+04  d E =-.153549E-02  mag=     4.0000
       N       E                     dE             d eps       ncg     rms          rms(c)
DAV:   1    -0.116453340578E+04    0.18363E-01   -0.79589E-01  1824   0.248E+00    0.634E-01
RMM:   2    -0.116454724683E+04   -0.13841E-01   -0.12608E-01  1731   0.355E-01    0.403E-01
RMM:   3    -0.116455284236E+04   -0.55955E-02   -0.40354E-02  1775   0.141E-01    0.144E-01
RMM:   4    -0.116455302914E+04   -0.18678E-03   -0.21863E-03  1918   0.462E-02    0.125E-01
RMM:   5    -0.116455298463E+04    0.44508E-04   -0.40507E-04  1640   0.237E-02    0.549E-02
RMM:   6    -0.116455299820E+04   -0.13563E-04   -0.12589E-04  1614   0.145E-02    0.287E-02
RMM:   7    -0.116455302957E+04   -0.31371E-04   -0.23387E-05  1562   0.725E-03    0.180E-02
RMM:   8    -0.116455303852E+04   -0.89562E-05   -0.10194E-05  1495   0.415E-03    0.105E-02
RMM:   9    -0.116455304438E+04   -0.58544E-05   -0.38126E-06  1192   0.261E-03    0.793E-03
RMM:  10    -0.116455304442E+04   -0.41335E-07   -0.15248E-06  1045   0.173E-03
  16 F= -.11645530E+04 E0= -.11645530E+04  d E =-.127543E-02  mag=     4.0000
       N       E                     dE             d eps       ncg     rms          rms(c)
DAV:   1    -0.116455105915E+04    0.19852E-02   -0.83578E-02  1856   0.804E-01    0.205E-01
RMM:   2    -0.116455247500E+04   -0.14159E-02   -0.13202E-02  1728   0.115E-01    0.130E-01
RMM:   3    -0.116455308738E+04   -0.61238E-03   -0.42435E-03  1774   0.457E-02    0.460E-02
RMM:   4    -0.116455310947E+04   -0.22091E-04   -0.22615E-04  1843   0.149E-02    0.404E-02
RMM:   5    -0.116455310302E+04    0.64447E-05   -0.50654E-05  1616   0.858E-03    0.152E-02
RMM:   6    -0.116455311014E+04   -0.71145E-05   -0.12261E-05  1580   0.447E-03    0.870E-03
RMM:   7    -0.116455311482E+04   -0.46806E-05   -0.23756E-06  1113   0.222E-03    0.596E-03
RMM:   8    -0.116455311686E+04   -0.20396E-05   -0.11619E-06  1056   0.148E-03    0.341E-03
RMM:   9    -0.116455311729E+04   -0.43598E-06   -0.33867E-07  1014   0.870E-04
  17 F= -.11645531E+04 E0= -.11645531E+04  d E =-.134831E-02  mag=     4.0000
       N       E                     dE             d eps       ncg     rms          rms(c)
DAV:   1    -0.116454559897E+04    0.75179E-02   -0.33418E-01  1824   0.161E+00    0.419E-01
RMM:   2    -0.116455157780E+04   -0.59788E-02   -0.54503E-02  1728   0.229E-01    0.266E-01
RMM:   3    -0.116455404006E+04   -0.24623E-02   -0.17584E-02  1773   0.908E-02    0.914E-02
RMM:   4    -0.116455411959E+04   -0.79529E-04   -0.87023E-04  1891   0.293E-02    0.801E-02
RMM:   5    -0.116455409841E+04    0.21182E-04   -0.18412E-04  1635   0.160E-02    0.314E-02
RMM:   6    -0.116455411404E+04   -0.15632E-04   -0.45512E-05  1624   0.850E-03    0.172E-02
RMM:   7    -0.116455412791E+04   -0.13876E-04   -0.94539E-06  1285   0.440E-03    0.112E-02
RMM:   8    -0.116455413419E+04   -0.62729E-05   -0.43416E-06  1177   0.271E-03    0.672E-03
RMM:   9    -0.116455413592E+04   -0.17335E-05   -0.12168E-06  1060   0.156E-03    0.501E-03
RMM:  10    -0.116455413594E+04   -0.17433E-07   -0.59552E-07  1024   0.106E-03
  18 F= -.11645541E+04 E0= -.11645541E+04  d E =-.101864E-02  mag=     4.0000
       N       E                     dE             d eps       ncg     rms          rms(c)
DAV:   1    -0.116451181708E+04    0.42319E-01   -0.17063E+00  1856   0.364E+00    0.948E-01
RMM:   2    -0.116454256034E+04   -0.30743E-01   -0.27790E-01  1726   0.517E-01    0.600E-01
RMM:   3    -0.116455489852E+04   -0.12338E-01   -0.89102E-02  1779   0.205E-01    0.211E-01
RMM:   4    -0.116455531398E+04   -0.41546E-03   -0.46206E-03  1896   0.663E-02    0.184E-01
RMM:   5    -0.116455527035E+04    0.43628E-04   -0.71735E-04  1667   0.301E-02    0.975E-02
RMM:   6    -0.116455524483E+04    0.25519E-04   -0.29290E-04  1604   0.216E-02    0.458E-02
RMM:   7    -0.116455530087E+04   -0.56031E-04   -0.48396E-05  1615   0.107E-02    0.261E-02
RMM:   8    -0.116455531375E+04   -0.12884E-04   -0.21394E-05  1575   0.588E-03    0.165E-02
RMM:   9    -0.116455532401E+04   -0.10258E-04   -0.73804E-06  1443   0.385E-03    0.115E-02
RMM:  10    -0.116455532420E+04   -0.19283E-06   -0.28848E-06  1127   0.233E-03
  19 F= -.11645553E+04 E0= -.11645553E+04  d E =-.220691E-02  mag=     4.0000
       N       E                     dE             d eps       ncg     rms          rms(c)
DAV:   1    -0.116454115359E+04    0.14170E-01   -0.60591E-01  1888   0.218E+00    0.565E-01
RMM:   2    -0.116455209958E+04   -0.10946E-01   -0.99887E-02  1718   0.310E-01    0.359E-01
RMM:   3    -0.116455658451E+04   -0.44849E-02   -0.32039E-02  1770   0.123E-01    0.126E-01
RMM:   4    -0.116455672199E+04   -0.13748E-03   -0.16610E-03  1883   0.408E-02    0.110E-01
RMM:   5    -0.116455668207E+04    0.39920E-04   -0.33315E-04  1640   0.215E-02    0.482E-02
RMM:   6    -0.116455669399E+04   -0.11926E-04   -0.10213E-04  1614   0.128E-02    0.247E-02
RMM:   7    -0.116455671892E+04   -0.24931E-04   -0.18860E-05  1533   0.664E-03    0.155E-02
RMM:   8    -0.116455672604E+04   -0.71139E-05   -0.85179E-06  1369   0.387E-03    0.956E-03
RMM:   9    -0.116455672914E+04   -0.31006E-05   -0.28156E-06  1144   0.232E-03    0.683E-03
RMM:  10    -0.116455672930E+04   -0.16709E-06   -0.14375E-06  1056   0.163E-03
  20 F= -.11645567E+04 E0= -.11645567E+04  d E =-.140510E-02  mag=     4.0000
       N       E                     dE             d eps       ncg     rms          rms(c)
DAV:   1    -0.116454136855E+04    0.15361E-01   -0.60738E-01  1824   0.218E+00    0.567E-01
RMM:   2    -0.116455238605E+04   -0.11017E-01   -0.10030E-01  1723   0.311E-01    0.360E-01
RMM:   3    -0.116455685347E+04   -0.44674E-02   -0.32145E-02  1771   0.124E-01    0.125E-01
RMM:   4    -0.116455699329E+04   -0.13982E-03   -0.16647E-03  1886   0.407E-02    0.110E-01
RMM:   5    -0.116455695107E+04    0.42215E-04   -0.33300E-04  1643   0.214E-02    0.481E-02
RMM:   6    -0.116455696467E+04   -0.13602E-04   -0.99384E-05  1620   0.127E-02    0.246E-02
RMM:   7    -0.116455699043E+04   -0.25758E-04   -0.17808E-05  1535   0.644E-03    0.154E-02
RMM:   8    -0.116455699837E+04   -0.79423E-05   -0.85090E-06  1383   0.389E-03    0.943E-03
RMM:   9    -0.116455700077E+04   -0.23922E-05   -0.26866E-06  1139   0.226E-03    0.675E-03
RMM:  10    -0.116455700101E+04   -0.23848E-06   -0.13694E-06  1050   0.157E-03
  21 F= -.11645570E+04 E0= -.11645570E+04  d E =-.167680E-02  mag=     4.0000
       N       E                     dE             d eps       ncg     rms          rms(c)
DAV:   1    -0.116455580857E+04    0.11922E-02   -0.48098E-02  1984   0.612E-01    0.160E-01
RMM:   2    -0.116455666542E+04   -0.85685E-03   -0.79541E-03  1719   0.873E-02    0.101E-01
RMM:   3    -0.116455703287E+04   -0.36745E-03   -0.25455E-03  1763   0.346E-02    0.348E-02
RMM:   4    -0.116455704412E+04   -0.11254E-04   -0.12633E-04  1711   0.115E-02    0.305E-02
RMM:   5    -0.116455703982E+04    0.43023E-05   -0.34418E-05  1593   0.681E-03    0.115E-02
RMM:   6    -0.116455704454E+04   -0.47230E-05   -0.72144E-06  1348   0.344E-03    0.641E-03
RMM:   7    -0.116455704780E+04   -0.32594E-05   -0.14684E-06  1081   0.184E-03    0.438E-03
RMM:   8    -0.116455704898E+04   -0.11787E-05   -0.63667E-07  1015   0.114E-03    0.251E-03
RMM:   9    -0.116455704929E+04   -0.31090E-06   -0.20240E-07   989   0.670E-04
  22 F= -.11645570E+04 E0= -.11645570E+04  d E =-.172509E-02  mag=     4.0000
       N       E                     dE             d eps       ncg     rms          rms(c)
DAV:   1    -0.116455014322E+04    0.69058E-02   -0.33264E-01  1856   0.160E+00    0.400E-01
RMM:   2    -0.116455566913E+04   -0.55259E-02   -0.50820E-02  1719   0.227E-01    0.255E-01
RMM:   3    -0.116455789913E+04   -0.22300E-02   -0.16106E-02  1766   0.912E-02    0.917E-02
RMM:   4    -0.116455797637E+04   -0.77241E-04   -0.90363E-04  1867   0.307E-02    0.801E-02
RMM:   5    -0.116455794756E+04    0.28804E-04   -0.21723E-04  1630   0.178E-02    0.318E-02
RMM:   6    -0.116455796449E+04   -0.16929E-04   -0.56670E-05  1620   0.979E-03    0.180E-02
RMM:   7    -0.116455797763E+04   -0.13135E-04   -0.10192E-05  1380   0.490E-03    0.120E-02
RMM:   8    -0.116455798278E+04   -0.51505E-05   -0.49123E-06  1222   0.305E-03    0.712E-03
RMM:   9    -0.116455798409E+04   -0.13133E-05   -0.15050E-06  1075   0.176E-03    0.491E-03
RMM:  10    -0.116455798422E+04   -0.12919E-06   -0.88227E-07  1030   0.132E-03
  23 F= -.11645580E+04 E0= -.11645580E+04  d E =-.934930E-03  mag=     4.0000
