       N       E                     dE             d eps       ncg     rms          rms(c)
DAV:   1     0.460469029773E+04    0.46047E+04   -0.17226E+05  1908   0.901E+02
DAV:   2    -0.122223145724E+03   -0.47269E+04   -0.42925E+04  2520   0.204E+02
DAV:   3    -0.118725837035E+04   -0.10650E+04   -0.10598E+04  2232   0.105E+02
DAV:   4    -0.122925797864E+04   -0.42000E+02   -0.41804E+02  2016   0.269E+01
DAV:   5    -0.123052834694E+04   -0.12704E+01   -0.12675E+01  2520   0.411E+00    0.673E+01
RMM:   6    -0.121719841051E+04    0.13330E+02   -0.74888E+00  1585   0.302E+00    0.562E+01
RMM:   7    -0.117577075469E+04    0.41428E+02   -0.69253E+01  1586   0.911E+00    0.399E+01
RMM:   8    -0.117369583984E+04    0.20749E+01   -0.49688E+00  1633   0.248E+00    0.367E+01
RMM:   9    -0.116652126869E+04    0.71746E+01   -0.17650E+01  1584   0.467E+00    0.211E+01
RMM:  10    -0.116691734882E+04   -0.39608E+00   -0.14012E+01  1584   0.407E+00    0.106E+01
RMM:  11    -0.116656617721E+04    0.35117E+00   -0.52597E-01  1635   0.859E-01    0.623E+00
RMM:  12    -0.116596791790E+04    0.59826E+00   -0.97678E-01  1586   0.104E+00    0.387E+00
RMM:  13    -0.116595084138E+04    0.17077E-01   -0.36697E-01  1593   0.645E-01    0.147E+00
RMM:  14    -0.116590471008E+04    0.46131E-01   -0.12893E-01  1587   0.389E-01    0.777E-01
RMM:  15    -0.116589540035E+04    0.93097E-02   -0.14875E-02  1617   0.122E-01    0.577E-01
RMM:  16    -0.116589365270E+04    0.17477E-02   -0.43786E-03  1644   0.570E-02    0.454E-01
RMM:  17    -0.116589393167E+04   -0.27897E-03   -0.67508E-03  1621   0.741E-02    0.352E-01
RMM:  18    -0.116589235707E+04    0.15746E-02   -0.60819E-03  1603   0.823E-02    0.227E-01
RMM:  19    -0.116589226257E+04    0.94493E-04   -0.35942E-04  1213   0.193E-02
   1 F= -.11729837E+04 E0= -.11729837E+04  d E =-.117298E+04  mag=    -0.9919
       N       E                     dE             d eps       ncg     rms          rms(c)
DAV:   1    -0.116589209174E+04    0.26532E-03   -0.40302E-01  1728   0.100E+00    0.449E-01
RMM:   2    -0.116589333522E+04   -0.12435E-02   -0.16619E-02  1619   0.150E-01    0.432E-01
RMM:   3    -0.116589308662E+04    0.24860E-03   -0.85913E-04  1447   0.339E-02    0.401E-01
RMM:   4    -0.116589246085E+04    0.62577E-03   -0.56080E-03  1587   0.810E-02    0.948E-02
RMM:   5    -0.116589239517E+04    0.65678E-04   -0.87183E-05  1070   0.144E-02
   2 F= -.11729839E+04 E0= -.11729839E+04  d E =-.223956E-03  mag=    -0.9992
       N       E                     dE             d eps       ncg     rms          rms(c)
DAV:   1    -0.116589347288E+04   -0.10120E-02   -0.10704E-01  1620   0.515E-01    0.218E-01
RMM:   2    -0.116589363126E+04   -0.15837E-03   -0.32165E-03  1593   0.698E-02    0.205E-01
RMM:   3    -0.116589348688E+04    0.14438E-03   -0.14005E-04  1066   0.159E-02    0.181E-01
RMM:   4    -0.116589330475E+04    0.18213E-03   -0.17636E-03  1587   0.447E-02    0.470E-02
RMM:   5    -0.116589326292E+04    0.41831E-04   -0.29659E-05  1015   0.822E-03
   3 F= -.11729847E+04 E0= -.11729847E+04  d E =-.104261E-02  mag=    -0.9997
       N       E                     dE             d eps       ncg     rms          rms(c)
DAV:   1    -0.116589438788E+04   -0.10831E-02   -0.17794E-01  1764   0.655E-01    0.269E-01
RMM:   2    -0.116589463648E+04   -0.24860E-03   -0.49240E-03  1593   0.859E-02    0.243E-01
RMM:   3    -0.116589442132E+04    0.21515E-03   -0.21112E-04  1120   0.197E-02    0.212E-01
RMM:   4    -0.116589418048E+04    0.24084E-03   -0.21796E-03  1587   0.504E-02    0.490E-02
RMM:   5    -0.116589414314E+04    0.37343E-04   -0.35243E-05  1019   0.896E-03
   4 F= -.11729859E+04 E0= -.11729859E+04  d E =-.114741E-02  mag=    -1.0000
       N       E                     dE             d eps       ncg     rms          rms(c)
DAV:   1    -0.116589412442E+04    0.56061E-04   -0.10679E-04  1476   0.192E-02    0.218E-02
RMM:   2    -0.116589412267E+04    0.17540E-05   -0.19321E-05   953   0.692E-03
   5 F= -.11729858E+04 E0= -.11729858E+04  d E =-.112057E-02  mag=    -1.0000
       N       E                     dE             d eps       ncg     rms          rms(c)
DAV:   1    -0.116589490065E+04   -0.77623E-03   -0.14094E-01  1728   0.590E-01    0.138E-01
RMM:   2    -0.116589510228E+04   -0.20164E-03   -0.28908E-03  1584   0.754E-02    0.130E-01
RMM:   3    -0.116589506149E+04    0.40798E-04   -0.13151E-04  1083   0.166E-02
   6 F= -.11729869E+04 E0= -.11729869E+04  d E =-.108139E-02  mag=    -1.0000
       N       E                     dE             d eps       ncg     rms          rms(c)
DAV:   1    -0.116589450105E+04    0.60124E-03   -0.32051E-01  1728   0.894E-01    0.225E-01
RMM:   2    -0.116589490824E+04   -0.40720E-03   -0.59861E-03  1584   0.108E-01    0.211E-01
RMM:   3    -0.116589482274E+04    0.85509E-04   -0.32283E-04  1224   0.242E-02
   7 F= -.11729869E+04 E0= -.11729869E+04  d E =-.106558E-02  mag=    -1.0000
       N       E                     dE             d eps       ncg     rms          rms(c)
DAV:   1    -0.116589562688E+04   -0.71863E-03   -0.25480E-01  1728   0.830E-01    0.153E-01
RMM:   2    -0.116589620338E+04   -0.57650E-03   -0.75483E-03  1597   0.130E-01    0.137E-01
RMM:   3    -0.116589605303E+04    0.15035E-03   -0.30198E-04  1202   0.242E-02    0.122E-01
RMM:   4    -0.116589583605E+04    0.21698E-03   -0.21607E-03  1571   0.494E-02    0.511E-02
RMM:   5    -0.116589575975E+04    0.76297E-04   -0.74984E-05  1010   0.112E-02
   8 F= -.11729877E+04 E0= -.11729877E+04  d E =-.806335E-03  mag=    -1.0000
       N       E                     dE             d eps       ncg     rms          rms(c)
DAV:   1    -0.116589624209E+04   -0.40604E-03   -0.38996E-02  1728   0.325E-01    0.490E-02
RMM:   2    -0.116589632754E+04   -0.85455E-04   -0.10223E-03  1576   0.473E-02    0.440E-02
RMM:   3    -0.116589631263E+04    0.14914E-04   -0.37915E-05   949   0.939E-03
   9 F= -.11729883E+04 E0= -.11729883E+04  d E =-.141010E-02  mag=    -1.0000
