       N       E                     dE             d eps       ncg     rms          rms(c)
DAV:   1     0.456159786608E+04    0.45616E+04   -0.17849E+05  1920   0.943E+02
DAV:   2    -0.825070471670E+02   -0.46441E+04   -0.42189E+04  2368   0.207E+02
DAV:   3    -0.119941621440E+04   -0.11169E+04   -0.11118E+04  2016   0.109E+02
DAV:   4    -0.124634818082E+04   -0.46932E+02   -0.46652E+02  1984   0.296E+01
DAV:   5    -0.124749272941E+04   -0.11445E+01   -0.11418E+01  2368   0.424E+00    0.698E+01
RMM:   6    -0.123222625479E+04    0.15266E+02   -0.88082E+00  1578   0.355E+00    0.558E+01
RMM:   7    -0.119591440780E+04    0.36312E+02   -0.10276E+02  1690   0.115E+01    0.304E+01
RMM:   8    -0.118816991230E+04    0.77445E+01   -0.11070E+01  1601   0.496E+00    0.262E+01
RMM:   9    -0.118394948316E+04    0.42204E+01   -0.30405E+01  1622   0.661E+00    0.178E+01
RMM:  10    -0.118307880441E+04    0.87068E+00   -0.11462E+01  1555   0.456E+00    0.122E+01
RMM:  11    -0.118122084482E+04    0.18580E+01   -0.34522E+00  1653   0.228E+00    0.735E+00
RMM:  12    -0.118106468583E+04    0.15616E+00   -0.63722E-01  1750   0.105E+00    0.483E+00
RMM:  13    -0.118054507855E+04    0.51961E+00   -0.11789E+00  1541   0.131E+00    0.264E+00
RMM:  14    -0.118054475481E+04    0.32374E-03   -0.23599E-01  1574   0.681E-01    0.350E+00
RMM:  15    -0.118055506302E+04   -0.10308E-01   -0.88744E-02  1585   0.386E-01    0.702E+00
RMM:  16    -0.118056148601E+04   -0.64230E-02   -0.38537E-02  1573   0.257E-01    0.597E+00
RMM:  17    -0.118056806951E+04   -0.65835E-02   -0.18791E-02  1655   0.174E-01    0.633E+00
RMM:  18    -0.118056722790E+04    0.84161E-03   -0.49869E-03  1729   0.834E-02    0.741E+00
RMM:  19    -0.118056521324E+04    0.20147E-02   -0.47910E-02  1874   0.241E-01    0.179E+00
RMM:  20    -0.118056462533E+04    0.58791E-03   -0.11032E-02  1637   0.117E-01    0.113E+00
RMM:  21    -0.118056516428E+04   -0.53894E-03   -0.72625E-03  1622   0.937E-02    0.221E+00
RMM:  22    -0.118056637981E+04   -0.12155E-02   -0.83217E-03  1653   0.101E-01    0.795E-01
RMM:  23    -0.118056646071E+04   -0.80910E-04   -0.18928E-03  1599   0.438E-02    0.898E-01
RMM:  24    -0.118056637105E+04    0.89663E-04   -0.15375E-03  1690   0.349E-02    0.547E-01
RMM:  25    -0.118056644359E+04   -0.72540E-04   -0.71717E-04  1653   0.189E-02    0.396E-01
RMM:  26    -0.118056653696E+04   -0.93373E-04   -0.62509E-04  1645   0.186E-02    0.151E-01
RMM:  27    -0.118056658825E+04   -0.51287E-04   -0.60399E-04  1616   0.162E-02    0.216E-01
RMM:  28    -0.118056658118E+04    0.70730E-05   -0.35791E-04  1672   0.814E-03    0.164E-01
RMM:  29    -0.118056656533E+04    0.15851E-04   -0.24331E-04  1649   0.612E-03    0.182E-01
RMM:  30    -0.118056657866E+04   -0.13329E-04   -0.20636E-04  1597   0.497E-03    0.182E-01
RMM:  31    -0.118056659410E+04   -0.15446E-04   -0.14462E-04  1500   0.360E-03    0.165E-01
RMM:  32    -0.118056660562E+04   -0.11513E-04   -0.11668E-04  1155   0.212E-03    0.190E-01
RMM:  33    -0.118056661350E+04   -0.78802E-05   -0.85038E-05  1385   0.306E-03    0.255E-01
RMM:  34    -0.118056662435E+04   -0.10856E-04   -0.85388E-05  1449   0.332E-03    0.103E-01
RMM:  35    -0.118056663097E+04   -0.66177E-05   -0.60839E-05  1261   0.249E-03    0.102E-01
RMM:  36    -0.118056663422E+04   -0.32476E-05   -0.47762E-05  1168   0.215E-03    0.217E-02
RMM:  37    -0.118056663769E+04   -0.34695E-05   -0.38695E-05  1238   0.231E-03    0.882E-02
RMM:  38    -0.118056664065E+04   -0.29657E-05   -0.28468E-05  1031   0.121E-03    0.718E-02
RMM:  39    -0.118056664295E+04   -0.22990E-05   -0.21863E-05  1019   0.833E-04    0.657E-02
RMM:  40    -0.118056664481E+04   -0.18633E-05   -0.18072E-05   784   0.526E-04    0.809E-02
RMM:  41    -0.118056664620E+04   -0.13806E-05   -0.13334E-05   925   0.555E-04    0.125E-01
RMM:  42    -0.118056664733E+04   -0.11388E-05   -0.11447E-05   660   0.453E-04    0.114E-01
RMM:  43    -0.118056664821E+04   -0.87365E-06   -0.87125E-06   939   0.667E-04
   1 F= -.11878938E+04 E0= -.11878910E+04  d E =-.118789E+04  mag=     0.0725
       N       E                     dE             d eps       ncg     rms          rms(c)
DAV:   1    -0.118056385815E+04    0.27892E-02   -0.43563E-01  1632   0.113E+00    0.209E-01
RMM:   2    -0.118056476562E+04   -0.90747E-03   -0.11616E-02  1632   0.169E-01    0.184E-01
RMM:   3    -0.118056469840E+04    0.67215E-04   -0.24603E-03  1707   0.729E-02    0.153E-01
RMM:   4    -0.118056439310E+04    0.30530E-03   -0.16869E-03  1548   0.546E-02    0.724E-02
RMM:   5    -0.118056440817E+04   -0.15063E-04   -0.33261E-04  1817   0.263E-02    0.678E-02
RMM:   6    -0.118056437651E+04    0.31659E-04   -0.83381E-05  1560   0.119E-02    0.423E-02
RMM:   7    -0.118056438075E+04   -0.42468E-05   -0.39679E-05  1607   0.813E-03    0.263E-02
RMM:   8    -0.118056438196E+04   -0.12092E-05   -0.13688E-05  1745   0.473E-03    0.161E-02
RMM:   9    -0.118056437968E+04    0.22821E-05   -0.45948E-06  1386   0.286E-03    0.844E-03
RMM:  10    -0.118056437891E+04    0.76732E-06   -0.37594E-06  1264   0.238E-03
   2 F= -.11878928E+04 E0= -.11878900E+04  d E =0.100863E-02  mag=     0.0719
       N       E                     dE             d eps       ncg     rms          rms(c)
DAV:   1    -0.118056689478E+04   -0.25151E-02   -0.15777E-01  1760   0.675E-01    0.119E-01
RMM:   2    -0.118056712338E+04   -0.22860E-03   -0.33071E-03  1609   0.976E-02    0.107E-01
RMM:   3    -0.118056708032E+04    0.43054E-04   -0.65070E-04  1639   0.407E-02    0.902E-02
RMM:   4    -0.118056695263E+04    0.12769E-03   -0.46241E-04  1550   0.292E-02    0.400E-02
RMM:   5    -0.118056695183E+04    0.80778E-06   -0.10934E-04  1730   0.149E-02    0.318E-02
RMM:   6    -0.118056694630E+04    0.55293E-05   -0.20874E-05  1597   0.658E-03    0.218E-02
RMM:   7    -0.118056694445E+04    0.18468E-05   -0.12700E-05  1529   0.472E-03    0.130E-02
RMM:   8    -0.118056694409E+04    0.36325E-06   -0.68950E-06  1494   0.332E-03
   3 F= -.11878946E+04 E0= -.11878918E+04  d E =-.799037E-03  mag=     0.0721
       N       E                     dE             d eps       ncg     rms          rms(c)
DAV:   1    -0.118056756133E+04   -0.61688E-03   -0.26327E-01  1792   0.865E-01    0.145E-01
RMM:   2    -0.118056777815E+04   -0.21682E-03   -0.40071E-03  1621   0.110E-01    0.123E-01
RMM:   3    -0.118056762298E+04    0.15517E-03   -0.91554E-04  1593   0.482E-02    0.867E-02
RMM:   4    -0.118056749472E+04    0.12826E-03   -0.49108E-04  1560   0.310E-02    0.507E-02
RMM:   5    -0.118056749011E+04    0.46153E-05   -0.15322E-04  1577   0.179E-02    0.312E-02
RMM:   6    -0.118056749230E+04   -0.21909E-05   -0.32259E-05  1763   0.820E-03    0.257E-02
RMM:   7    -0.118056749338E+04   -0.10824E-05   -0.11822E-05  1540   0.448E-03    0.117E-02
RMM:   8    -0.118056749432E+04   -0.94296E-06   -0.36526E-06  1213   0.256E-03
   4 F= -.11878956E+04 E0= -.11878928E+04  d E =-.956359E-03  mag=     0.0712
       N       E                     dE             d eps       ncg     rms          rms(c)
DAV:   1    -0.118056753336E+04   -0.39984E-04   -0.16199E-03  1760   0.680E-02    0.135E-02
RMM:   2    -0.118056753484E+04   -0.14756E-05   -0.23763E-05  1619   0.853E-03    0.109E-02
RMM:   3    -0.118056753382E+04    0.10213E-05   -0.56449E-06  1398   0.382E-03    0.604E-03
RMM:   4    -0.118056753337E+04    0.44971E-06   -0.17874E-06  1013   0.201E-03
   5 F= -.11878956E+04 E0= -.11878928E+04  d E =-.963146E-03  mag=     0.0713
       N       E                     dE             d eps       ncg     rms          rms(c)
DAV:   1    -0.118056767330E+04   -0.13948E-03   -0.23686E-01  1664   0.823E-01    0.118E-01
RMM:   2    -0.118056798596E+04   -0.31267E-03   -0.40778E-03  1654   0.111E-01    0.105E-01
RMM:   3    -0.118056797542E+04    0.10543E-04   -0.87700E-04  1627   0.475E-02    0.853E-02
RMM:   4    -0.118056792992E+04    0.45499E-04   -0.48843E-04  1568   0.310E-02    0.394E-02
RMM:   5    -0.118056793572E+04   -0.58007E-05   -0.92746E-05  1761   0.144E-02    0.260E-02
RMM:   6    -0.118056793512E+04    0.60094E-06   -0.22978E-05  1593   0.638E-03    0.160E-02
RMM:   7    -0.118056793424E+04    0.88290E-06   -0.51784E-06  1395   0.310E-03
   6 F= -.11878961E+04 E0= -.11878933E+04  d E =-.533314E-03  mag=     0.0723
       N       E                     dE             d eps       ncg     rms          rms(c)
DAV:   1    -0.118056802104E+04   -0.85915E-04   -0.14044E-02  1664   0.201E-01    0.297E-02
RMM:   2    -0.118056803678E+04   -0.15747E-04   -0.23657E-04  1650   0.268E-02    0.260E-02
RMM:   3    -0.118056803076E+04    0.60215E-05   -0.52194E-05  1596   0.116E-02    0.201E-02
RMM:   4    -0.118056802526E+04    0.55013E-05   -0.35819E-05  1563   0.812E-03    0.109E-02
RMM:   5    -0.118056802548E+04   -0.22307E-06   -0.72126E-06  1532   0.392E-03
   7 F= -.11878962E+04 E0= -.11878934E+04  d E =-.591778E-03  mag=     0.0723
       N       E                     dE             d eps       ncg     rms          rms(c)
DAV:   1    -0.118056834533E+04   -0.32006E-03   -0.14792E-01  1664   0.642E-01    0.807E-02
RMM:   2    -0.118056851524E+04   -0.16991E-03   -0.21917E-03  1631   0.811E-02    0.722E-02
RMM:   3    -0.118056852372E+04   -0.84859E-05   -0.47367E-04  1621   0.351E-02    0.583E-02
RMM:   4    -0.118056851041E+04    0.13316E-04   -0.19067E-04  1629   0.202E-02    0.329E-02
RMM:   5    -0.118056851386E+04   -0.34577E-05   -0.34371E-05  1767   0.848E-03    0.265E-02
RMM:   6    -0.118056851619E+04   -0.23250E-05   -0.11886E-05  1517   0.478E-03    0.124E-02
RMM:   7    -0.118056851768E+04   -0.14907E-05   -0.56678E-06  1448   0.326E-03    0.854E-03
RMM:   8    -0.118056851735E+04    0.32681E-06   -0.12730E-06  1020   0.166E-03
   8 F= -.11878969E+04 E0= -.11878941E+04  d E =-.698648E-03  mag=     0.0718
       N       E                     dE             d eps       ncg     rms          rms(c)
DAV:   1    -0.118056846567E+04    0.52011E-04   -0.29255E-02  1664   0.285E-01    0.369E-02
RMM:   2    -0.118056850018E+04   -0.34512E-04   -0.44615E-04  1628   0.366E-02    0.331E-02
RMM:   3    -0.118056850333E+04   -0.31482E-05   -0.95839E-05  1625   0.158E-02    0.270E-02
RMM:   4    -0.118056850223E+04    0.10976E-05   -0.34111E-05  1624   0.868E-03    0.163E-02
RMM:   5    -0.118056850308E+04   -0.84988E-06   -0.64371E-06  1434   0.369E-03
   9 F= -.11878969E+04 E0= -.11878942E+04  d E =-.777003E-03  mag=     0.0718
       N       E                     dE             d eps       ncg     rms          rms(c)
DAV:   1    -0.118056892512E+04   -0.42289E-03   -0.10162E-01  1664   0.517E-01    0.696E-02
RMM:   2    -0.118056902185E+04   -0.96730E-04   -0.14046E-03  1561   0.630E-02    0.626E-02
RMM:   3    -0.118056901964E+04    0.22134E-05   -0.28323E-04  1593   0.273E-02    0.511E-02
RMM:   4    -0.118056901099E+04    0.86528E-05   -0.16787E-04  1564   0.183E-02    0.264E-02
RMM:   5    -0.118056901395E+04   -0.29599E-05   -0.26954E-05  1730   0.795E-03    0.209E-02
RMM:   6    -0.118056901552E+04   -0.15790E-05   -0.91993E-06  1490   0.412E-03    0.948E-03
RMM:   7    -0.118056901620E+04   -0.67582E-06   -0.22838E-06  1081   0.220E-03
  10 F= -.11878975E+04 E0= -.11878948E+04  d E =-.586392E-03  mag=     0.0708
       N       E                     dE             d eps       ncg     rms          rms(c)
DAV:   1    -0.118056905195E+04   -0.36422E-04   -0.41680E-02  1664   0.331E-01    0.442E-02
RMM:   2    -0.118056909257E+04   -0.40628E-04   -0.58081E-04  1560   0.405E-02    0.400E-02
RMM:   3    -0.118056909487E+04   -0.22910E-05   -0.11729E-04  1597   0.175E-02    0.335E-02
RMM:   4    -0.118056909410E+04    0.76145E-06   -0.64104E-05  1564   0.115E-02    0.163E-02
RMM:   5    -0.118056909543E+04   -0.13298E-05   -0.10568E-05  1672   0.498E-03    0.132E-02
RMM:   6    -0.118056909585E+04   -0.41517E-06   -0.34241E-06  1178   0.254E-03
  11 F= -.11878977E+04 E0= -.11878949E+04  d E =-.714067E-03  mag=     0.0704
       N       E                     dE             d eps       ncg     rms          rms(c)
DAV:   1    -0.118056947211E+04   -0.37668E-03   -0.68314E-02  1664   0.422E-01    0.574E-02
RMM:   2    -0.118056954722E+04   -0.75109E-04   -0.10303E-03  1575   0.536E-02    0.518E-02
RMM:   3    -0.118056954715E+04    0.72410E-07   -0.19738E-04  1584   0.230E-02    0.427E-02
RMM:   4    -0.118056954712E+04    0.25189E-07   -0.16505E-04  1567   0.173E-02    0.153E-02
RMM:   5    -0.118056954675E+04    0.37431E-06   -0.19676E-05  1653   0.710E-03    0.122E-02
RMM:   6    -0.118056954575E+04    0.99363E-06   -0.75059E-06  1471   0.355E-03
  12 F= -.11878981E+04 E0= -.11878954E+04  d E =-.452888E-03  mag=     0.0707
       N       E                     dE             d eps       ncg     rms          rms(c)
DAV:   1    -0.118056958048E+04   -0.33731E-04   -0.88443E-03  1664   0.152E-01    0.217E-02
RMM:   2    -0.118056958989E+04   -0.94085E-05   -0.13193E-04  1576   0.191E-02    0.196E-02
RMM:   3    -0.118056959113E+04   -0.12380E-05   -0.25743E-05  1598   0.820E-03    0.163E-02
RMM:   4    -0.118056959267E+04   -0.15481E-05   -0.15834E-05  1553   0.567E-03    0.504E-03
RMM:   5    -0.118056959262E+04    0.55457E-07   -0.19597E-06  1057   0.230E-03
  13 F= -.11878982E+04 E0= -.11878954E+04  d E =-.501234E-03  mag=     0.0708
       N       E                     dE             d eps       ncg     rms          rms(c)
DAV:   1    -0.118056989797E+04   -0.30529E-03   -0.72984E-02  1600   0.434E-01    0.656E-02
RMM:   2    -0.118056999220E+04   -0.94233E-04   -0.12383E-03  1653   0.578E-02    0.557E-02
RMM:   3    -0.118056999815E+04   -0.59541E-05   -0.23965E-04  1625   0.249E-02    0.437E-02
RMM:   4    -0.118057000447E+04   -0.63114E-05   -0.10778E-04  1617   0.148E-02    0.213E-02
RMM:   5    -0.118057000882E+04   -0.43535E-05   -0.20947E-05  1683   0.661E-03    0.119E-02
RMM:   6    -0.118057000830E+04    0.51550E-06   -0.48039E-06  1317   0.303E-03
  14 F= -.11878986E+04 E0= -.11878958E+04  d E =-.450575E-03  mag=     0.0712
