       N       E                     dE             d eps       ncg     rms          rms(c)
DAV:   1     0.497862401459E+04    0.49786E+04   -0.17064E+05  1800   0.912E+02
DAV:   2    -0.334573385655E+02   -0.50121E+04   -0.45769E+04  2520   0.210E+02
DAV:   3    -0.118402150418E+04   -0.11506E+04   -0.11448E+04  2124   0.111E+02
DAV:   4    -0.123021080944E+04   -0.46189E+02   -0.45943E+02  2052   0.292E+01
DAV:   5    -0.123140503156E+04   -0.11942E+01   -0.11918E+01  2376   0.432E+00    0.659E+01
RMM:   6    -0.121181654833E+04    0.19588E+02   -0.25651E+01  1584   0.485E+00    0.538E+01
RMM:   7    -0.119849750160E+04    0.13319E+02   -0.88367E+00  1584   0.340E+00    0.478E+01
RMM:   8    -0.118925677636E+04    0.92407E+01   -0.91585E+00  1584   0.300E+00    0.395E+01
RMM:   9    -0.116782549745E+04    0.21431E+02   -0.40252E+01  1584   0.720E+00    0.251E+01
RMM:  10    -0.116355667456E+04    0.42688E+01   -0.22700E+01  1584   0.541E+00    0.129E+01
RMM:  11    -0.116282290502E+04    0.73377E+00   -0.30575E+00  1602   0.179E+00    0.927E+00
RMM:  12    -0.116269342635E+04    0.12948E+00   -0.16662E-01  1697   0.419E-01    0.978E+00
RMM:  13    -0.116268852948E+04    0.48969E-02   -0.78644E-03  1797   0.107E-01    0.101E+01
RMM:  14    -0.116243808582E+04    0.25044E+00   -0.15271E+00  1584   0.132E+00    0.760E+00
RMM:  15    -0.116239259722E+04    0.45489E-01   -0.41609E-01  1584   0.663E-01    0.583E+00
RMM:  16    -0.116224231641E+04    0.15028E+00   -0.23212E-01  1593   0.382E-01    0.531E+00
RMM:  17    -0.116223880298E+04    0.35134E-02   -0.72865E-02  1585   0.224E-01    0.525E+00
RMM:  18    -0.116222456755E+04    0.14235E-01   -0.52975E-02  1585   0.165E-01    0.568E+00
RMM:  19    -0.116224437769E+04   -0.19810E-01   -0.19913E-01  1584   0.368E-01    0.495E+00
RMM:  20    -0.116225199358E+04   -0.76159E-02   -0.20745E-01  1606   0.267E-01    0.483E+00
RMM:  21    -0.116183201340E+04    0.41998E+00   -0.67745E-01  1581   0.438E-01    0.507E+00
RMM:  22    -0.116190133006E+04   -0.69317E-01   -0.17790E-01  1598   0.372E-01    0.544E+00
RMM:  23    -0.116193664333E+04   -0.35313E-01   -0.11678E-02  1623   0.987E-02    0.570E+00
RMM:  24    -0.116190394109E+04    0.32702E-01   -0.18944E-03  1480   0.380E-02    0.548E+00
RMM:  25    -0.116203443394E+04   -0.13049E+00   -0.10621E-01  1587   0.175E-01    0.555E+00
RMM:  26    -0.116195404698E+04    0.80387E-01   -0.16795E-01  1580   0.251E-01    0.540E+00
RMM:  27    -0.116199393626E+04   -0.39889E-01   -0.13508E-01  1511   0.186E-01    0.561E+00
RMM:  28    -0.116213441904E+04   -0.14048E+00   -0.26600E-02  1584   0.103E-01    0.795E+00
RMM:  29    -0.116211202109E+04    0.22398E-01   -0.12611E-02  1583   0.845E-02    0.777E+00
RMM:  30    -0.116196953813E+04    0.14248E+00   -0.84544E-02  1516   0.153E-01    0.586E+00
RMM:  31    -0.116202134102E+04   -0.51803E-01   -0.37081E-03  1234   0.449E-02    0.601E+00
RMM:  32    -0.116196477034E+04    0.56571E-01   -0.55386E-02  1457   0.127E-01    0.470E+00
RMM:  33    -0.116207753248E+04   -0.11276E+00   -0.65986E-02  1556   0.149E-01    0.448E+00
RMM:  34    -0.116206534580E+04    0.12187E-01   -0.51381E-02  1524   0.138E-01    0.537E+00
RMM:  35    -0.116191484629E+04    0.15050E+00   -0.24132E-02  1400   0.827E-02    0.578E+00
RMM:  36    -0.116187370196E+04    0.41144E-01   -0.26132E-02  1330   0.900E-02    0.118E+00
RMM:  37    -0.116191674622E+04   -0.43044E-01   -0.68693E-03  1285   0.814E-02    0.148E+00
RMM:  38    -0.116189433786E+04    0.22408E-01   -0.42485E-03  1212   0.406E-02    0.229E+00
RMM:  39    -0.116189665123E+04   -0.23134E-02   -0.25265E-03  1245   0.595E-02    0.206E+00
RMM:  40    -0.116189219168E+04    0.44596E-02   -0.89195E-04  1067   0.232E-02    0.249E+00
RMM:  41    -0.116187967843E+04    0.12513E-01   -0.12014E-03  1055   0.222E-02    0.240E+00
RMM:  42    -0.116186634810E+04    0.13330E-01   -0.14868E-03  1042   0.223E-02    0.231E+00
RMM:  43    -0.116186248927E+04    0.38588E-02   -0.66202E-04  1001   0.178E-02    0.219E+00
RMM:  44    -0.116186424818E+04   -0.17589E-02   -0.29702E-04   950   0.149E-02    0.234E+00
RMM:  45    -0.116186818398E+04   -0.39358E-02   -0.21780E-04   786   0.104E-02    0.223E+00
RMM:  46    -0.116187070776E+04   -0.25238E-02   -0.15127E-04   782   0.769E-03    0.215E+00
RMM:  47    -0.116188435412E+04   -0.13646E-01   -0.24215E-03  1070   0.272E-02    0.260E+00
RMM:  48    -0.116188631205E+04   -0.19579E-02   -0.24106E-03  1105   0.314E-02    0.230E+00
RMM:  49    -0.116190503734E+04   -0.18725E-01   -0.20690E-02  1290   0.771E-02    0.137E+00
RMM:  50    -0.116192181985E+04   -0.16783E-01   -0.10124E-02  1252   0.540E-02    0.164E+00
RMM:  51    -0.116192136056E+04    0.45929E-03   -0.11164E-03  1095   0.275E-02    0.145E+00
RMM:  52    -0.116192197371E+04   -0.61315E-03   -0.42646E-04   984   0.122E-02    0.103E+00
RMM:  53    -0.116193143650E+04   -0.94628E-02   -0.40097E-03  1129   0.386E-02    0.436E-01
RMM:  54    -0.116193738645E+04   -0.59500E-02   -0.33738E-03  1138   0.371E-02    0.421E-01
RMM:  55    -0.116193805113E+04   -0.66468E-03   -0.56938E-04  1012   0.194E-02    0.641E-01
RMM:  56    -0.116194466600E+04   -0.66149E-02   -0.81646E-03  1228   0.537E-02    0.317E+00
RMM:  57    -0.116193342982E+04    0.11236E-01   -0.24324E-03  1179   0.442E-02    0.411E+00
RMM:  58    -0.116191433447E+04    0.19095E-01   -0.49829E-04  1052   0.259E-02    0.379E+00
RMM:  59    -0.116189979166E+04    0.14543E-01   -0.64323E-03  1124   0.454E-02    0.183E+00
RMM:  60    -0.116191831481E+04   -0.18523E-01   -0.40406E-03  1114   0.403E-02    0.588E-01
RMM:  61    -0.116193462024E+04   -0.16305E-01   -0.11212E-03  1146   0.350E-02    0.593E-01
RMM:  62    -0.116193480287E+04   -0.18263E-03   -0.59854E-04   968   0.180E-02    0.565E-01
RMM:  63    -0.116193360459E+04    0.11983E-02   -0.10113E-03   949   0.182E-02    0.607E-01
RMM:  64    -0.116193483055E+04   -0.12260E-02   -0.31111E-04   885   0.132E-02    0.518E-01
RMM:  65    -0.116193473958E+04    0.90971E-04   -0.38361E-04   825   0.114E-02
   1 F= -.11692169E+04 E0= -.11692028E+04  d E =-.116922E+04  mag=     0.0557
       N       E                     dE             d eps       ncg     rms          rms(c)
DAV:   1    -0.116193056145E+04    0.42691E-02   -0.44389E+00  1728   0.265E+00    0.109E+00
RMM:   2    -0.116195098421E+04   -0.20423E-01   -0.92156E-02  1586   0.375E-01    0.444E+00
RMM:   3    -0.116190277384E+04    0.48210E-01   -0.70513E-03  1630   0.104E-01    0.103E+00
RMM:   4    -0.116193341487E+04   -0.30641E-01   -0.18323E-03  1320   0.584E-02    0.935E-01
RMM:   5    -0.116193758629E+04   -0.41714E-02   -0.14489E-02  1584   0.119E-01    0.132E+00
RMM:   6    -0.116193468724E+04    0.28990E-02   -0.21754E-03  1532   0.607E-02    0.931E-01
RMM:   7    -0.116193803363E+04   -0.33464E-02   -0.98157E-04  1218   0.444E-02    0.177E-01
RMM:   8    -0.116193972139E+04   -0.16878E-02   -0.54824E-04  1121   0.271E-02    0.192E-01
RMM:   9    -0.116193978371E+04   -0.62315E-04   -0.25100E-04  1048   0.174E-02
   2 F= -.11692238E+04 E0= -.11692098E+04  d E =-.684543E-02  mag=     0.0732
       N       E                     dE             d eps       ncg     rms          rms(c)
DAV:   1    -0.116194316601E+04   -0.34446E-02   -0.39266E-01  1656   0.790E-01    0.558E-01
RMM:   2    -0.116194871420E+04   -0.55482E-02   -0.74915E-03  1584   0.109E-01    0.295E+00
RMM:   3    -0.116192314938E+04    0.25565E-01   -0.14374E-03  1288   0.524E-02    0.327E-01
RMM:   4    -0.116194124024E+04   -0.18091E-01   -0.85289E-04  1220   0.415E-02    0.274E-01
RMM:   5    -0.116194358739E+04   -0.23471E-02   -0.16289E-03  1477   0.439E-02    0.344E-01
RMM:   6    -0.116194351565E+04    0.71741E-04   -0.43894E-04  1071   0.195E-02
   3 F= -.11692270E+04 E0= -.11692129E+04  d E =-.100400E-01  mag=     0.0645
       N       E                     dE             d eps       ncg     rms          rms(c)
DAV:   1    -0.116193631665E+04    0.72707E-02   -0.27846E+00  1800   0.243E+00    0.675E-01
RMM:   2    -0.116194550454E+04   -0.91879E-02   -0.63705E-02  1596   0.369E-01    0.271E+00
RMM:   3    -0.116192310518E+04    0.22399E-01   -0.42643E-03  1608   0.882E-02    0.445E-01
RMM:   4    -0.116194022496E+04   -0.17120E-01   -0.16455E-03  1531   0.575E-02    0.372E-01
RMM:   5    -0.116194018214E+04    0.42822E-04   -0.11463E-02  1589   0.112E-01    0.539E-01
RMM:   6    -0.116193930387E+04    0.87827E-03   -0.75766E-04  1349   0.361E-02    0.189E-01
RMM:   7    -0.116194028429E+04   -0.98042E-03   -0.12884E-03  1454   0.355E-02    0.163E-01
RMM:   8    -0.116194062093E+04   -0.33664E-03   -0.32623E-04  1044   0.165E-02    0.299E-01
RMM:   9    -0.116194045767E+04    0.16326E-03   -0.95067E-05  1021   0.121E-02    0.282E-01
RMM:  10    -0.116194061919E+04   -0.16152E-03   -0.12265E-04  1007   0.891E-03    0.302E-01
RMM:  11    -0.116194076011E+04   -0.14093E-03   -0.15579E-04   952   0.855E-03    0.301E-01
RMM:  12    -0.116194068421E+04    0.75899E-04   -0.29951E-03  1143   0.376E-02    0.380E-01
RMM:  13    -0.116194166110E+04   -0.97689E-03   -0.49724E-04  1041   0.197E-02    0.376E-01
RMM:  14    -0.116193877386E+04    0.28872E-02   -0.27306E-03  1194   0.452E-02    0.394E-01
RMM:  15    -0.116194066524E+04   -0.18914E-02   -0.39531E-03  1192   0.525E-02    0.404E-01
RMM:  16    -0.116194124669E+04   -0.58145E-03   -0.36266E-04  1039   0.255E-02    0.404E-01
RMM:  17    -0.116194136084E+04   -0.11415E-03   -0.99211E-04  1213   0.291E-02    0.362E-01
RMM:  18    -0.116193032815E+04    0.11033E-01   -0.23763E-02  1333   0.967E-02    0.278E-01
RMM:  19    -0.116194291329E+04   -0.12585E-01   -0.22427E-03  1237   0.438E-02    0.359E-01
RMM:  20    -0.116194267360E+04    0.23969E-03   -0.12968E-03  1139   0.372E-02    0.181E-01
RMM:  21    -0.116193840991E+04    0.42637E-02   -0.55209E-03  1189   0.480E-02    0.148E-01
RMM:  22    -0.116192950265E+04    0.89073E-02   -0.28425E-02  1327   0.117E-01    0.454E-01
RMM:  23    -0.116194301315E+04   -0.13511E-01   -0.33849E-03  1253   0.610E-02    0.180E-01
RMM:  24    -0.116194416250E+04   -0.11493E-02   -0.53400E-04  1034   0.204E-02    0.186E-01
RMM:  25    -0.116194146615E+04    0.26963E-02   -0.33873E-03  1127   0.375E-02    0.203E-01
RMM:  26    -0.116194360586E+04   -0.21397E-02   -0.29088E-04  1009   0.198E-02    0.209E-01
RMM:  27    -0.116194364541E+04   -0.39545E-04   -0.77431E-05   826   0.883E-03
   4 F= -.11692261E+04 E0= -.11692120E+04  d E =0.891338E-03  mag=     0.0351
       N       E                     dE             d eps       ncg     rms          rms(c)
DAV:   1    -0.116195163804E+04   -0.80322E-02   -0.61886E-01  1800   0.115E+00    0.326E-01
RMM:   2    -0.116195355104E+04   -0.19130E-02   -0.14468E-02  1596   0.175E-01    0.113E+00
RMM:   3    -0.116194912893E+04    0.44221E-02   -0.91837E-04  1337   0.447E-02    0.473E-01
RMM:   4    -0.116195139823E+04   -0.22693E-02   -0.31591E-04  1120   0.262E-02    0.353E-01
RMM:   5    -0.116195194942E+04   -0.55119E-03   -0.20895E-03  1557   0.483E-02    0.266E-01
RMM:   6    -0.116195234027E+04   -0.39085E-03   -0.20002E-04  1061   0.164E-02    0.219E-01
RMM:   7    -0.116195254737E+04   -0.20710E-03   -0.29369E-04  1038   0.157E-02    0.213E-01
RMM:   8    -0.116195266554E+04   -0.11817E-03   -0.20774E-04  1018   0.111E-02    0.159E-01
RMM:   9    -0.116195286963E+04   -0.20409E-03   -0.42065E-04  1026   0.143E-02    0.159E-01
RMM:  10    -0.116195298553E+04   -0.11590E-03   -0.53130E-04   991   0.132E-02    0.130E-01
RMM:  11    -0.116195318490E+04   -0.19937E-03   -0.41784E-04  1011   0.140E-02    0.142E-01
RMM:  12    -0.116195163382E+04    0.15511E-02   -0.44615E-03  1178   0.437E-02    0.930E-02
RMM:  13    -0.116195363426E+04   -0.20004E-02   -0.32477E-04  1077   0.249E-02    0.515E-02
RMM:  14    -0.116195349622E+04    0.13804E-03   -0.38091E-04  1014   0.203E-02    0.534E-02
RMM:  15    -0.116195250640E+04    0.98982E-03   -0.40733E-03  1163   0.476E-02    0.853E-02
RMM:  16    -0.116195372548E+04   -0.12191E-02   -0.32899E-04  1020   0.198E-02    0.619E-02
RMM:  17    -0.116195260817E+04    0.11173E-02   -0.34754E-03  1128   0.378E-02    0.163E-01
RMM:  18    -0.116195368873E+04   -0.10806E-02   -0.24245E-04  1030   0.219E-02    0.115E-01
RMM:  19    -0.116195370954E+04   -0.20812E-04   -0.67135E-05   903   0.104E-02
   5 F= -.11692366E+04 E0= -.11692225E+04  d E =-.964563E-02  mag=    -0.0053
       N       E                     dE             d eps       ncg     rms          rms(c)
DAV:   1    -0.116194839969E+04    0.52890E-02   -0.16769E+00  1764   0.185E+00    0.417E-01
RMM:   2    -0.116195201075E+04   -0.36111E-02   -0.39789E-02  1594   0.278E-01    0.115E+00
RMM:   3    -0.116194623657E+04    0.57742E-02   -0.20505E-03  1594   0.615E-02    0.421E-01
RMM:   4    -0.116195082894E+04   -0.45924E-02   -0.48699E-04  1217   0.334E-02    0.376E-01
RMM:   5    -0.116195006573E+04    0.76322E-03   -0.51763E-03  1586   0.771E-02    0.231E-01
RMM:   6    -0.116195003238E+04    0.33348E-04   -0.78396E-04  1523   0.323E-02
   6 F= -.11692347E+04 E0= -.11692206E+04  d E =0.191560E-02  mag=    -0.0059
       N       E                     dE             d eps       ncg     rms          rms(c)
DAV:   1    -0.116195567054E+04   -0.56048E-02   -0.54018E-01  1800   0.105E+00    0.222E-01
RMM:   2    -0.116195670667E+04   -0.10361E-02   -0.12985E-02  1596   0.160E-01    0.535E-01
RMM:   3    -0.116195537175E+04    0.13349E-02   -0.63750E-04  1294   0.354E-02    0.242E-01
RMM:   4    -0.116195641525E+04   -0.10435E-02   -0.16872E-04  1065   0.207E-02    0.207E-01
RMM:   5    -0.116195588544E+04    0.52981E-03   -0.28930E-03  1582   0.571E-02    0.114E-01
RMM:   6    -0.116195588067E+04    0.47703E-05   -0.10595E-04  1017   0.140E-02
   7 F= -.11692396E+04 E0= -.11692255E+04  d E =-.293616E-02  mag=    -0.0060
       N       E                     dE             d eps       ncg     rms          rms(c)
DAV:   1    -0.116195681217E+04   -0.92673E-03   -0.12041E+00  1584   0.108E+00    0.317E-01
RMM:   2    -0.116195887776E+04   -0.20656E-02   -0.24744E-02  1584   0.151E-01    0.307E-01
RMM:   3    -0.116195890729E+04   -0.29533E-04   -0.11011E-03  1223   0.298E-02    0.500E-01
RMM:   4    -0.116195813437E+04    0.77292E-03   -0.14150E-04  1061   0.187E-02    0.294E-01
RMM:   5    -0.116195853955E+04   -0.40518E-03   -0.45612E-04  1167   0.233E-02    0.209E-01
RMM:   6    -0.116195854462E+04   -0.50693E-05   -0.12917E-03  1351   0.345E-02    0.929E-02
RMM:   7    -0.116195858653E+04   -0.41913E-04   -0.11937E-04  1026   0.134E-02
   8 F= -.11692432E+04 E0= -.11692291E+04  d E =-.368551E-02  mag=    -0.0067
       N       E                     dE             d eps       ncg     rms          rms(c)
DAV:   1    -0.116195792831E+04    0.61631E-03   -0.64566E-01  1728   0.793E-01    0.237E-01
RMM:   2    -0.116195874082E+04   -0.81250E-03   -0.10250E-02  1584   0.109E-01    0.251E-01
RMM:   3    -0.116195875486E+04   -0.14044E-04   -0.52531E-04  1139   0.217E-02
   9 F= -.11692441E+04 E0= -.11692301E+04  d E =-.458051E-02  mag=    -0.0077
       N       E                     dE             d eps       ncg     rms          rms(c)
DAV:   1    -0.116195978375E+04   -0.10429E-02   -0.47113E-01  1728   0.749E-01    0.398E-01
RMM:   2    -0.116196073457E+04   -0.95082E-03   -0.89322E-03  1584   0.109E-01    0.458E-01
RMM:   3    -0.116196041655E+04    0.31801E-03   -0.44408E-04  1137   0.233E-02    0.522E-01
RMM:   4    -0.116196000111E+04    0.41545E-03   -0.35148E-04  1107   0.204E-02    0.330E-01
RMM:   5    -0.116196044000E+04   -0.43889E-03   -0.32455E-04  1133   0.220E-02    0.265E-01
RMM:   6    -0.116196049554E+04   -0.55544E-04   -0.13373E-03  1416   0.369E-02    0.610E-02
RMM:   7    -0.116196048460E+04    0.10940E-04   -0.49499E-05   999   0.936E-03
  10 F= -.11692461E+04 E0= -.11692320E+04  d E =-.193153E-02  mag=    -0.0078
       N       E                     dE             d eps       ncg     rms          rms(c)
DAV:   1    -0.116196047294E+04    0.22604E-04   -0.60498E-02  1728   0.271E-01    0.899E-02
RMM:   2    -0.116196057674E+04   -0.10381E-03   -0.12087E-03  1326   0.410E-02    0.121E-01
RMM:   3    -0.116196055866E+04    0.18085E-04   -0.64437E-05   990   0.110E-02
  11 F= -.11692462E+04 E0= -.11692321E+04  d E =-.208010E-02  mag=    -0.0089
       N       E                     dE             d eps       ncg     rms          rms(c)
DAV:   1    -0.116196078364E+04   -0.20689E-03   -0.10668E-02  1728   0.161E-01    0.131E-01
RMM:   2    -0.116196100316E+04   -0.21952E-03   -0.20958E-04  1074   0.232E-02    0.607E-01
RMM:   3    -0.116195942325E+04    0.15799E-02   -0.14455E-04  1056   0.202E-02    0.798E-02
RMM:   4    -0.116196076351E+04   -0.13403E-02   -0.12144E-04  1037   0.170E-02    0.543E-02
RMM:   5    -0.116196082805E+04   -0.64541E-04   -0.11584E-04   998   0.141E-02
  12 F= -.11692465E+04 E0= -.11692324E+04  d E =-.250829E-03  mag=    -0.0076
       N       E                     dE             d eps       ncg     rms          rms(c)
DAV:   1    -0.116196088745E+04   -0.12394E-03   -0.49285E-03  1728   0.110E-01    0.179E-02
RMM:   2    -0.116196089432E+04   -0.68632E-05   -0.10993E-04   992   0.171E-02
  13 F= -.11692465E+04 E0= -.11692324E+04  d E =-.304682E-03  mag=    -0.0079
