       N       E                     dE             d eps       ncg     rms          rms(c)
DAV:   1     0.490126956678E+04    0.49013E+04   -0.16911E+05  1800   0.904E+02
DAV:   2    -0.533605931722E+02   -0.49546E+04   -0.45012E+04  2520   0.209E+02
DAV:   3    -0.117316746664E+04   -0.11198E+04   -0.11147E+04  2160   0.110E+02
DAV:   4    -0.121833747570E+04   -0.45170E+02   -0.44974E+02  2052   0.287E+01
DAV:   5    -0.121949278870E+04   -0.11553E+01   -0.11536E+01  2412   0.426E+00    0.596E+01
RMM:   6    -0.120736712815E+04    0.12126E+02   -0.70524E+00  1584   0.309E+00    0.490E+01
RMM:   7    -0.117177250853E+04    0.35595E+02   -0.47291E+01  1584   0.794E+00    0.301E+01
RMM:   8    -0.116109825180E+04    0.10674E+02   -0.15844E+01  1584   0.458E+00    0.223E+01
RMM:   9    -0.115874367770E+04    0.23546E+01   -0.31844E+01  1584   0.638E+00    0.896E+00
RMM:  10    -0.115858078584E+04    0.16289E+00   -0.75100E-01  1648   0.118E+00    0.639E+00
RMM:  11    -0.115794465251E+04    0.63613E+00   -0.30888E+00  1584   0.190E+00    0.178E+00
RMM:  12    -0.115795779327E+04   -0.13141E-01   -0.30624E-01  1584   0.613E-01    0.137E+00
RMM:  13    -0.115791860034E+04    0.39193E-01   -0.16357E-01  1584   0.455E-01    0.289E-01
RMM:  14    -0.115791780211E+04    0.79823E-03   -0.38821E-03  1623   0.843E-02    0.224E-01
RMM:  15    -0.115791740840E+04    0.39371E-03   -0.19545E-03  1529   0.439E-02    0.151E-01
RMM:  16    -0.115791753356E+04   -0.12516E-03   -0.93978E-04  1491   0.358E-02    0.116E-01
RMM:  17    -0.115791748115E+04    0.52408E-04   -0.15630E-04  1093   0.151E-02
   1 F= -.11650253E+04 E0= -.11650253E+04  d E =-.116503E+04  mag=    -0.0014
       N       E                     dE             d eps       ncg     rms          rms(c)
DAV:   1    -0.115791824337E+04   -0.70981E-03   -0.45851E-01  1728   0.108E+00    0.228E-01
RMM:   2    -0.115791864437E+04   -0.40101E-03   -0.12716E-02  1584   0.154E-01    0.214E-01
RMM:   3    -0.115791782222E+04    0.82216E-03   -0.95353E-04  1628   0.386E-02    0.179E-01
RMM:   4    -0.115791647929E+04    0.13429E-02   -0.50424E-03  1584   0.774E-02    0.537E-02
RMM:   5    -0.115791644926E+04    0.30034E-04   -0.82673E-05  1047   0.135E-02
   2 F= -.11650247E+04 E0= -.11650247E+04  d E =0.647248E-03  mag=    -0.0004
       N       E                     dE             d eps       ncg     rms          rms(c)
DAV:   1    -0.115791856183E+04   -0.20825E-02   -0.13336E-01  1764   0.582E-01    0.103E-01
RMM:   2    -0.115791865213E+04   -0.90301E-04   -0.28846E-03  1584   0.773E-02    0.971E-02
RMM:   3    -0.115791847246E+04    0.17967E-03   -0.17368E-04  1114   0.183E-02    0.821E-02
RMM:   4    -0.115791817282E+04    0.29964E-03   -0.12923E-03  1584   0.396E-02    0.258E-02
RMM:   5    -0.115791817058E+04    0.22366E-05   -0.19959E-05  1004   0.704E-03
   3 F= -.11650262E+04 E0= -.11650262E+04  d E =-.864991E-03  mag=    -0.0001
