       N       E                     dE             d eps       ncg     rms          rms(c)
DAV:   1     0.500704769081E+04    0.50070E+04   -0.17121E+05  1800   0.916E+02
DAV:   2    -0.193525054132E+02   -0.50264E+04   -0.46062E+04  2556   0.212E+02
DAV:   3    -0.117299763472E+04   -0.11536E+04   -0.11484E+04  2088   0.112E+02
DAV:   4    -0.122159096633E+04   -0.48593E+02   -0.48348E+02  2052   0.303E+01
DAV:   5    -0.122284095770E+04   -0.12500E+01   -0.12470E+01  2268   0.451E+00    0.606E+01
RMM:   6    -0.121086017082E+04    0.11981E+02   -0.82338E+00  1584   0.350E+00    0.505E+01
RMM:   7    -0.119367192586E+04    0.17188E+02   -0.12815E+01  1584   0.419E+00    0.400E+01
RMM:   8    -0.116894381094E+04    0.24728E+02   -0.29426E+01  1584   0.629E+00    0.268E+01
RMM:   9    -0.116187667482E+04    0.70671E+01   -0.15114E+01  1584   0.451E+00    0.183E+01
RMM:  10    -0.116185574991E+04    0.20925E-01   -0.17255E+01  1584   0.481E+00    0.900E+00
RMM:  11    -0.116154343609E+04    0.31231E+00   -0.97532E-01  1618   0.132E+00    0.464E+00
RMM:  12    -0.116114031643E+04    0.40312E+00   -0.89930E-01  1584   0.104E+00    0.278E+00
RMM:  13    -0.116112311625E+04    0.17200E-01   -0.28049E-01  1588   0.668E-01    0.106E+00
RMM:  14    -0.116111719531E+04    0.59209E-02   -0.57459E-02  1584   0.295E-01    0.545E-01
RMM:  15    -0.116111858675E+04   -0.13914E-02   -0.10371E-02  1625   0.126E-01    0.265E-01
RMM:  16    -0.116111776824E+04    0.81851E-03   -0.33291E-03  1584   0.703E-02    0.196E-01
RMM:  17    -0.116111782922E+04   -0.60981E-04   -0.77887E-04  1293   0.379E-02
   1 F= -.11681609E+04 E0= -.11681609E+04  d E =-.116816E+04  mag=     2.0057
       N       E                     dE             d eps       ncg     rms          rms(c)
DAV:   1    -0.116111730939E+04    0.45885E-03   -0.34499E-01  1656   0.935E-01    0.193E-01
RMM:   2    -0.116111810410E+04   -0.79471E-03   -0.10776E-02  1584   0.143E-01    0.176E-01
RMM:   3    -0.116111782202E+04    0.28208E-03   -0.60837E-04  1388   0.358E-02    0.151E-01
RMM:   4    -0.116111726982E+04    0.55220E-03   -0.13704E-03  1584   0.426E-02    0.921E-02
RMM:   5    -0.116111722546E+04    0.44360E-04   -0.17074E-04  1065   0.182E-02
   2 F= -.11681605E+04 E0= -.11681605E+04  d E =0.331404E-03  mag=     2.0000
       N       E                     dE             d eps       ncg     rms          rms(c)
DAV:   1    -0.116111855573E+04   -0.12859E-02   -0.98794E-02  1692   0.497E-01    0.105E-01
RMM:   2    -0.116111868636E+04   -0.13063E-03   -0.24678E-03  1584   0.721E-02    0.964E-02
RMM:   3    -0.116111858766E+04    0.98701E-04   -0.12364E-04  1039   0.169E-02
   3 F= -.11681618E+04 E0= -.11681618E+04  d E =-.885572E-03  mag=     2.0000
