       N       E                     dE             d eps       ncg     rms          rms(c)
DAV:   1     0.461467538281E+04    0.46147E+04   -0.17724E+05  1888   0.942E+02
DAV:   2    -0.101615922808E+03   -0.47163E+04   -0.43016E+04  2432   0.209E+02
DAV:   3    -0.120118515114E+04   -0.10996E+04   -0.10940E+04  2016   0.109E+02
DAV:   4    -0.124626061257E+04   -0.45075E+02   -0.44829E+02  1952   0.292E+01
DAV:   5    -0.124742503051E+04   -0.11644E+01   -0.11617E+01  2304   0.436E+00    0.699E+01
RMM:   6    -0.123282634052E+04    0.14599E+02   -0.85846E+00  1566   0.348E+00    0.554E+01
RMM:   7    -0.119573231058E+04    0.37094E+02   -0.93115E+01  1631   0.108E+01    0.301E+01
RMM:   8    -0.118744816241E+04    0.82841E+01   -0.12354E+01  1566   0.507E+00    0.253E+01
RMM:   9    -0.118198054246E+04    0.54676E+01   -0.34391E+01  1626   0.709E+00    0.158E+01
RMM:  10    -0.118345494911E+04   -0.14744E+01   -0.92067E+00  1568   0.415E+00    0.126E+01
RMM:  11    -0.118079936377E+04    0.26556E+01   -0.40779E+00  1628   0.223E+00    0.673E+00
RMM:  12    -0.118070148639E+04    0.97877E-01   -0.12136E+00  1580   0.128E+00    0.457E+00
RMM:  13    -0.118035160900E+04    0.34988E+00   -0.48264E-01  1547   0.918E-01    0.223E+00
RMM:  14    -0.118030275774E+04    0.48851E-01   -0.21241E-01  1594   0.567E-01    0.141E+00
RMM:  15    -0.118033538645E+04   -0.32629E-01   -0.36168E-02  1625   0.268E-01    0.114E+00
RMM:  16    -0.118034789709E+04   -0.12511E-01   -0.18743E-02  1596   0.175E-01    0.112E+00
RMM:  17    -0.118035588274E+04   -0.79856E-02   -0.66206E-03  1694   0.921E-02    0.142E+00
RMM:  18    -0.118035759460E+04   -0.17119E-02   -0.15312E-02  1597   0.150E-01    0.118E+00
RMM:  19    -0.118035853772E+04   -0.94312E-03   -0.25654E-03  1615   0.693E-02    0.119E+00
RMM:  20    -0.118035403719E+04    0.45005E-02   -0.48925E-03  1619   0.777E-02    0.942E-01
RMM:  21    -0.118035408328E+04   -0.46090E-04   -0.70908E-04  1593   0.325E-02    0.917E-01
RMM:  22    -0.118035128321E+04    0.28001E-02   -0.43180E-03  1770   0.763E-02    0.513E-01
RMM:  23    -0.118035190659E+04   -0.62338E-03   -0.24626E-03  1690   0.503E-02    0.370E-01
RMM:  24    -0.118035246520E+04   -0.55861E-03   -0.55447E-04  1620   0.285E-02    0.258E-01
RMM:  25    -0.118035289227E+04   -0.42707E-03   -0.55894E-04  1633   0.255E-02    0.158E-01
RMM:  26    -0.118035278888E+04    0.10339E-03   -0.19227E-04  1609   0.152E-02    0.166E-01
RMM:  27    -0.118035283083E+04   -0.41958E-04   -0.18214E-04  1591   0.162E-02    0.106E-01
RMM:  28    -0.118035280870E+04    0.22136E-04   -0.69221E-05  1572   0.106E-02    0.502E-02
RMM:  29    -0.118035280524E+04    0.34543E-05   -0.52210E-05  1672   0.797E-03    0.243E-02
RMM:  30    -0.118035280565E+04   -0.40601E-06   -0.11709E-05  1458   0.361E-03    0.173E-02
RMM:  31    -0.118035280561E+04    0.42994E-07   -0.44578E-06  1174   0.198E-03
   1 F= -.11876847E+04 E0= -.11876847E+04  d E =-.118768E+04  mag=     1.0004
       N       E                     dE             d eps       ncg     rms          rms(c)
DAV:   1    -0.118034950178E+04    0.33039E-02   -0.36891E-01  1696   0.101E+00    0.181E-01
RMM:   2    -0.118035023856E+04   -0.73678E-03   -0.92020E-03  1608   0.149E-01    0.174E-01
RMM:   3    -0.118035030173E+04   -0.63168E-04   -0.18811E-03  1827   0.624E-02    0.162E-01
RMM:   4    -0.118035005447E+04    0.24726E-03   -0.87812E-04  1593   0.385E-02    0.898E-02
RMM:   5    -0.118035005151E+04    0.29589E-05   -0.27016E-04  1769   0.217E-02    0.680E-02
RMM:   6    -0.118035004760E+04    0.39143E-05   -0.62110E-05  1684   0.107E-02    0.456E-02
RMM:   7    -0.118035004424E+04    0.33607E-05   -0.28659E-05  1549   0.676E-03    0.332E-02
RMM:   8    -0.118035004810E+04   -0.38596E-05   -0.36341E-05  1562   0.703E-03    0.103E-02
RMM:   9    -0.118035004660E+04    0.14977E-05   -0.44017E-06  1377   0.311E-03    0.571E-03
RMM:  10    -0.118035004606E+04    0.53734E-06   -0.30495E-06  1224   0.198E-03
   2 F= -.11876833E+04 E0= -.11876833E+04  d E =0.140621E-02  mag=     1.0000
       N       E                     dE             d eps       ncg     rms          rms(c)
DAV:   1    -0.118035277676E+04   -0.27302E-02   -0.15747E-01  1760   0.660E-01    0.118E-01
RMM:   2    -0.118035300322E+04   -0.22647E-03   -0.31865E-03  1601   0.936E-02    0.111E-01
RMM:   3    -0.118035299420E+04    0.90204E-05   -0.58096E-04  1680   0.377E-02    0.101E-01
RMM:   4    -0.118035289794E+04    0.96266E-04   -0.49410E-04  1589   0.282E-02    0.524E-02
RMM:   5    -0.118035290220E+04   -0.42655E-05   -0.95964E-05  1826   0.135E-02    0.419E-02
RMM:   6    -0.118035289683E+04    0.53729E-05   -0.15451E-05  1507   0.559E-03    0.268E-02
RMM:   7    -0.118035289628E+04    0.55371E-06   -0.84900E-06  1483   0.375E-03
   3 F= -.11876853E+04 E0= -.11876852E+04  d E =-.562324E-03  mag=     1.0000
       N       E                     dE             d eps       ncg     rms          rms(c)
DAV:   1    -0.118035305299E+04   -0.15616E-03   -0.13973E-01  1888   0.615E-01    0.832E-02
RMM:   2    -0.118035320453E+04   -0.15154E-03   -0.21877E-03  1643   0.778E-02    0.730E-02
RMM:   3    -0.118035320245E+04    0.20771E-05   -0.45330E-04  1627   0.331E-02    0.577E-02
RMM:   4    -0.118035318711E+04    0.15339E-04   -0.18330E-04  1617   0.189E-02    0.345E-02
RMM:   5    -0.118035319014E+04   -0.30251E-05   -0.30511E-05  1724   0.803E-03    0.262E-02
RMM:   6    -0.118035319324E+04   -0.30994E-05   -0.88095E-06  1442   0.411E-03    0.186E-02
RMM:   7    -0.118035319583E+04   -0.25885E-05   -0.57662E-06  1425   0.326E-03    0.876E-03
RMM:   8    -0.118035319594E+04   -0.11822E-06   -0.20413E-06  1060   0.198E-03
   4 F= -.11876858E+04 E0= -.11876858E+04  d E =-.581317E-03  mag=     1.0000
       N       E                     dE             d eps       ncg     rms          rms(c)
DAV:   1    -0.118035320630E+04   -0.10477E-04   -0.16601E-04  1760   0.213E-02    0.360E-03
RMM:   2    -0.118035320659E+04   -0.28760E-06   -0.27346E-06  1139   0.273E-03
   5 F= -.11876858E+04 E0= -.11876858E+04  d E =-.582129E-03  mag=     1.0000
       N       E                     dE             d eps       ncg     rms          rms(c)
DAV:   1    -0.118035345816E+04   -0.25186E-03   -0.51640E-02  1664   0.368E-01    0.551E-02
RMM:   2    -0.118035352282E+04   -0.64657E-04   -0.91878E-04  1654   0.494E-02    0.461E-02
RMM:   3    -0.118035352402E+04   -0.12051E-05   -0.19105E-04  1635   0.209E-02    0.377E-02
RMM:   4    -0.118035352013E+04    0.38888E-05   -0.89920E-05  1608   0.129E-02    0.170E-02
RMM:   5    -0.118035352466E+04   -0.45288E-05   -0.22011E-05  1588   0.640E-03    0.120E-02
RMM:   6    -0.118035352344E+04    0.12192E-05   -0.58958E-06  1382   0.321E-03    0.721E-03
RMM:   7    -0.118035352432E+04   -0.87373E-06   -0.16060E-06  1053   0.176E-03
   6 F= -.11876863E+04 E0= -.11876863E+04  d E =-.426709E-03  mag=     1.0000
       N       E                     dE             d eps       ncg     rms          rms(c)
DAV:   1    -0.118035350768E+04    0.15767E-04   -0.21359E-02  1664   0.236E-01    0.363E-02
RMM:   2    -0.118035353404E+04   -0.26365E-04   -0.38668E-04  1652   0.320E-02    0.305E-02
RMM:   3    -0.118035353514E+04   -0.10975E-05   -0.82076E-05  1637   0.136E-02    0.249E-02
RMM:   4    -0.118035353502E+04    0.11925E-06   -0.37455E-05  1577   0.833E-03    0.115E-02
RMM:   5    -0.118035353722E+04   -0.21997E-05   -0.95339E-06  1535   0.422E-03    0.788E-03
RMM:   6    -0.118035353668E+04    0.53605E-06   -0.27180E-06  1115   0.217E-03
   7 F= -.11876863E+04 E0= -.11876863E+04  d E =-.509792E-03  mag=     1.0000
       N       E                     dE             d eps       ncg     rms          rms(c)
DAV:   1    -0.118035377034E+04   -0.23312E-03   -0.53507E-02  1664   0.374E-01    0.541E-02
RMM:   2    -0.118035386109E+04   -0.90751E-04   -0.12144E-03  1684   0.534E-02    0.464E-02
RMM:   3    -0.118035387145E+04   -0.10353E-04   -0.24400E-04  1639   0.222E-02    0.382E-02
RMM:   4    -0.118035387562E+04   -0.41690E-05   -0.10359E-04  1614   0.139E-02    0.145E-02
RMM:   5    -0.118035387987E+04   -0.42560E-05   -0.20696E-05  1618   0.615E-03    0.108E-02
RMM:   6    -0.118035387861E+04    0.12592E-05   -0.61750E-06  1387   0.313E-03    0.579E-03
RMM:   7    -0.118035387938E+04   -0.76892E-06   -0.14868E-06  1051   0.166E-03
   8 F= -.11876868E+04 E0= -.11876868E+04  d E =-.468386E-03  mag=     1.0000
       N       E                     dE             d eps       ncg     rms          rms(c)
DAV:   1    -0.118035386123E+04    0.17379E-04   -0.63627E-02  1664   0.407E-01    0.589E-02
RMM:   2    -0.118035396997E+04   -0.10874E-03   -0.14547E-03  1681   0.586E-02    0.506E-02
RMM:   3    -0.118035398163E+04   -0.11661E-04   -0.29406E-04  1639   0.244E-02    0.417E-02
RMM:   4    -0.118035398544E+04   -0.38052E-05   -0.12661E-04  1613   0.153E-02    0.158E-02
RMM:   5    -0.118035399052E+04   -0.50807E-05   -0.25284E-05  1633   0.679E-03    0.118E-02
RMM:   6    -0.118035398892E+04    0.15956E-05   -0.74705E-06  1443   0.342E-03    0.638E-03
RMM:   7    -0.118035398990E+04   -0.97544E-06   -0.18112E-06  1068   0.182E-03
   9 F= -.11876871E+04 E0= -.11876871E+04  d E =-.717774E-03  mag=     1.0000
       N       E                     dE             d eps       ncg     rms          rms(c)
DAV:   1    -0.118035436238E+04   -0.37346E-03   -0.43090E-02  1664   0.329E-01    0.447E-02
RMM:   2    -0.118035442944E+04   -0.67058E-04   -0.92325E-04  1670   0.467E-02    0.392E-02
RMM:   3    -0.118035443577E+04   -0.63260E-05   -0.17759E-04  1647   0.194E-02    0.324E-02
RMM:   4    -0.118035443933E+04   -0.35638E-05   -0.83113E-05  1612   0.122E-02    0.138E-02
RMM:   5    -0.118035444186E+04   -0.25323E-05   -0.14367E-05  1612   0.524E-03    0.109E-02
RMM:   6    -0.118035444195E+04   -0.83703E-07   -0.35339E-06  1144   0.248E-03
  10 F= -.11876875E+04 E0= -.11876875E+04  d E =-.464741E-03  mag=     1.0000
       N       E                     dE             d eps       ncg     rms          rms(c)
DAV:   1    -0.118035462231E+04   -0.18045E-03   -0.80772E-02  1600   0.451E-01    0.614E-02
RMM:   2    -0.118035475024E+04   -0.12793E-03   -0.17321E-03  1670   0.635E-02    0.538E-02
RMM:   3    -0.118035476524E+04   -0.15004E-04   -0.34197E-04  1649   0.263E-02    0.445E-02
RMM:   4    -0.118035477247E+04   -0.72351E-05   -0.13732E-04  1614   0.162E-02    0.189E-02
RMM:   5    -0.118035477798E+04   -0.55100E-05   -0.26733E-05  1654   0.702E-03    0.148E-02
RMM:   6    -0.118035477789E+04    0.96843E-07   -0.68922E-06  1353   0.339E-03
  11 F= -.11876879E+04 E0= -.11876879E+04  d E =-.820239E-03  mag=     1.0000
       N       E                     dE             d eps       ncg     rms          rms(c)
DAV:   1    -0.118035384740E+04    0.93058E-03   -0.32306E-01  1600   0.902E-01    0.122E-01
RMM:   2    -0.118035437097E+04   -0.52357E-03   -0.69165E-03  1673   0.127E-01    0.107E-01
RMM:   3    -0.118035442514E+04   -0.54166E-04   -0.13642E-03  1651   0.528E-02    0.885E-02
RMM:   4    -0.118035443707E+04   -0.11937E-04   -0.56040E-04  1614   0.326E-02    0.372E-02
RMM:   5    -0.118035445841E+04   -0.21336E-04   -0.11012E-04  1719   0.143E-02    0.294E-02
RMM:   6    -0.118035445703E+04    0.13814E-05   -0.26160E-05  1509   0.661E-03    0.178E-02
RMM:   7    -0.118035446313E+04   -0.60991E-05   -0.74491E-06  1444   0.377E-03    0.114E-02
RMM:   8    -0.118035446115E+04    0.19731E-05   -0.84243E-06  1468   0.344E-03    0.572E-03
RMM:   9    -0.118035446137E+04   -0.21423E-06   -0.20669E-06  1086   0.186E-03
  12 F= -.11876876E+04 E0= -.11876876E+04  d E =-.550194E-03  mag=     1.0000
       N       E                     dE             d eps       ncg     rms          rms(c)
DAV:   1    -0.118035453025E+04   -0.69095E-04   -0.16612E-01  1600   0.648E-01    0.880E-02
RMM:   2    -0.118035479316E+04   -0.26291E-03   -0.35310E-03  1672   0.913E-02    0.770E-02
RMM:   3    -0.118035481222E+04   -0.19067E-04   -0.67652E-04  1646   0.378E-02    0.632E-02
RMM:   4    -0.118035481228E+04   -0.57196E-07   -0.30002E-04  1614   0.236E-02    0.277E-02
RMM:   5    -0.118035482115E+04   -0.88706E-05   -0.50790E-05  1688   0.994E-03    0.217E-02
RMM:   6    -0.118035482269E+04   -0.15345E-05   -0.13494E-05  1491   0.474E-03    0.128E-02
RMM:   7    -0.118035482545E+04   -0.27631E-05   -0.40561E-06  1216   0.274E-03    0.829E-03
RMM:   8    -0.118035482460E+04    0.84966E-06   -0.31908E-06  1194   0.219E-03
  13 F= -.11876879E+04 E0= -.11876879E+04  d E =-.879108E-03  mag=     1.0000
       N       E                     dE             d eps       ncg     rms          rms(c)
DAV:   1    -0.118035502813E+04   -0.20268E-03   -0.20706E-02  1664   0.227E-01    0.316E-02
RMM:   2    -0.118035505827E+04   -0.30147E-04   -0.41847E-04  1683   0.315E-02    0.276E-02
RMM:   3    -0.118035505940E+04   -0.11219E-05   -0.80375E-05  1626   0.131E-02    0.219E-02
RMM:   4    -0.118035505977E+04   -0.37473E-06   -0.36738E-05  1594   0.813E-03    0.108E-02
RMM:   5    -0.118035506068E+04   -0.91242E-06   -0.57714E-06  1280   0.339E-03
  14 F= -.11876882E+04 E0= -.11876882E+04  d E =-.269924E-03  mag=     1.0000
       N       E                     dE             d eps       ncg     rms          rms(c)
DAV:   1    -0.118035519521E+04   -0.13544E-03   -0.18678E-01  1600   0.680E-01    0.964E-02
RMM:   2    -0.118035546786E+04   -0.27265E-03   -0.37775E-03  1686   0.949E-02    0.848E-02
RMM:   3    -0.118035549360E+04   -0.25740E-04   -0.75364E-04  1640   0.394E-02    0.684E-02
RMM:   4    -0.118035551113E+04   -0.17531E-04   -0.30937E-04  1605   0.244E-02    0.329E-02
RMM:   5    -0.118035551963E+04   -0.85034E-05   -0.52122E-05  1723   0.101E-02    0.244E-02
RMM:   6    -0.118035552595E+04   -0.63163E-05   -0.11313E-05  1520   0.466E-03    0.152E-02
RMM:   7    -0.118035552784E+04   -0.18918E-05   -0.43897E-06  1260   0.277E-03    0.758E-03
RMM:   8    -0.118035552767E+04    0.17694E-06   -0.35289E-06  1235   0.220E-03
  15 F= -.11876888E+04 E0= -.11876888E+04  d E =-.842033E-03  mag=     1.0000
