       N       E                     dE             d eps       ncg     rms          rms(c)
DAV:   1     0.462817631646E+04    0.46282E+04   -0.18007E+05  1920   0.950E+02
DAV:   2    -0.695899438865E+02   -0.46978E+04   -0.42844E+04  2400   0.208E+02
DAV:   3    -0.119964934421E+04   -0.11301E+04   -0.11254E+04  2016   0.111E+02
DAV:   4    -0.124660945906E+04   -0.46960E+02   -0.46656E+02  1920   0.298E+01
DAV:   5    -0.124781775565E+04   -0.12083E+01   -0.12047E+01  2336   0.441E+00    0.705E+01
RMM:   6    -0.123022197998E+04    0.17596E+02   -0.98669E+00  1584   0.378E+00    0.557E+01
RMM:   7    -0.119822630781E+04    0.31996E+02   -0.57862E+01  1589   0.910E+00    0.330E+01
RMM:   8    -0.118482210501E+04    0.13404E+02   -0.20806E+01  1538   0.621E+00    0.249E+01
RMM:   9    -0.118066370823E+04    0.41584E+01   -0.21861E+01  1548   0.605E+00    0.161E+01
RMM:  10    -0.118084461520E+04   -0.18091E+00   -0.65818E+00  1641   0.355E+00    0.123E+01
RMM:  11    -0.118167502800E+04   -0.83041E+00   -0.27596E+00  1581   0.229E+00    0.803E+00
RMM:  12    -0.118029026624E+04    0.13848E+01   -0.89954E-01  1563   0.128E+00    0.454E+00
RMM:  13    -0.117999932125E+04    0.29094E+00   -0.73969E-01  1555   0.109E+00    0.241E+00
RMM:  14    -0.117997164257E+04    0.27679E-01   -0.20590E-01  1551   0.626E-01    0.173E+00
RMM:  15    -0.117997368973E+04   -0.20472E-02   -0.35641E-02  1688   0.256E-01    0.198E+00
RMM:  16    -0.117996174584E+04    0.11944E-01   -0.30618E-02  1574   0.211E-01    0.210E+00
RMM:  17    -0.117996366245E+04   -0.19166E-02   -0.96202E-03  1677   0.123E-01    0.239E+00
RMM:  18    -0.117997208951E+04   -0.84271E-02   -0.20884E-02  1589   0.177E-01    0.289E+00
RMM:  19    -0.117997471807E+04   -0.26286E-02   -0.50983E-03  1603   0.870E-02    0.310E+00
RMM:  20    -0.117998243335E+04   -0.77153E-02   -0.81843E-03  1635   0.107E-01    0.367E+00
RMM:  21    -0.117998656152E+04   -0.41282E-02   -0.72427E-03  1659   0.983E-02    0.415E+00
RMM:  22    -0.117998209625E+04    0.44653E-02   -0.10038E-02  1780   0.103E-01    0.503E+00
RMM:  23    -0.117998190728E+04    0.18897E-03   -0.15649E-03  1792   0.390E-02    0.511E+00
RMM:  24    -0.117997998034E+04    0.19269E-02   -0.24876E-03  1699   0.456E-02    0.534E+00
RMM:  25    -0.117997952292E+04    0.45741E-03   -0.11568E-03  1785   0.225E-02    0.530E+00
RMM:  26    -0.117997936459E+04    0.15833E-03   -0.84702E-04  1919   0.133E-02    0.537E+00
RMM:  27    -0.117998495467E+04   -0.55901E-02   -0.25555E-03  2315   0.522E-02    0.605E+00
RMM:  28    -0.117998792224E+04   -0.29676E-02   -0.24461E-03  2251   0.483E-02    0.716E+00
RMM:  29    -0.117998208399E+04    0.58383E-02   -0.35668E-03  2348   0.693E-02    0.584E+00
RMM:  30    -0.117997671522E+04    0.53688E-02   -0.38728E-03  2448   0.678E-02    0.503E+00
RMM:  31    -0.117997423286E+04    0.24824E-02   -0.21813E-02  2590   0.171E-01    0.198E+00
RMM:  32    -0.117997526568E+04   -0.10328E-02   -0.30705E-03  2400   0.602E-02    0.987E-01
RMM:  33    -0.117997581899E+04   -0.55331E-03   -0.22690E-03  2308   0.491E-02    0.325E-01
RMM:  34    -0.117997602366E+04   -0.20467E-03   -0.10264E-03  1926   0.270E-02    0.476E-01
RMM:  35    -0.117997603064E+04   -0.69834E-05   -0.50107E-04  1696   0.122E-02    0.388E-01
RMM:  36    -0.117997606906E+04   -0.38422E-04   -0.33982E-04  1600   0.653E-03    0.337E-01
RMM:  37    -0.117997585881E+04    0.21025E-03   -0.72336E-04  2248   0.231E-02    0.311E-01
RMM:  38    -0.117997587628E+04   -0.17472E-04   -0.31598E-04  1667   0.112E-02    0.258E-01
RMM:  39    -0.117997590509E+04   -0.28808E-04   -0.31105E-04  1600   0.631E-03    0.287E-01
RMM:  40    -0.117997591000E+04   -0.49124E-05   -0.29175E-04  1882   0.856E-03    0.164E-01
RMM:  41    -0.117997593290E+04   -0.22893E-04   -0.22709E-04  1328   0.346E-03    0.173E-01
RMM:  42    -0.117997594564E+04   -0.12739E-04   -0.21935E-04  1803   0.599E-03    0.223E-01
RMM:  43    -0.117997596332E+04   -0.17689E-04   -0.19302E-04  1396   0.347E-03    0.236E-01
RMM:  44    -0.117997597337E+04   -0.10045E-04   -0.17949E-04  1677   0.477E-03    0.192E-01
RMM:  45    -0.117997598552E+04   -0.12147E-04   -0.16461E-04  1631   0.464E-03    0.116E-01
RMM:  46    -0.117997599920E+04   -0.13683E-04   -0.13514E-04  1057   0.234E-03    0.908E-02
RMM:  47    -0.117997601095E+04   -0.11751E-04   -0.12474E-04  1299   0.302E-03    0.915E-02
RMM:  48    -0.117997602224E+04   -0.11292E-04   -0.11383E-04  1049   0.190E-03    0.884E-02
RMM:  49    -0.117997603190E+04   -0.96581E-05   -0.98821E-05  1021   0.153E-03    0.825E-02
RMM:  50    -0.117997604110E+04   -0.92012E-05   -0.90719E-05  1011   0.105E-03    0.881E-02
RMM:  51    -0.117997604956E+04   -0.84614E-05   -0.83885E-05  1008   0.125E-03    0.131E-01
RMM:  52    -0.117997605670E+04   -0.71335E-05   -0.71920E-05  1013   0.108E-03    0.117E-01
RMM:  53    -0.117997606361E+04   -0.69142E-05   -0.67704E-05  1028   0.122E-03    0.909E-02
RMM:  54    -0.117997606986E+04   -0.62489E-05   -0.60432E-05   968   0.915E-04    0.672E-02
RMM:  55    -0.117997607566E+04   -0.57980E-05   -0.57491E-05  1004   0.811E-04    0.773E-02
RMM:  56    -0.117997608087E+04   -0.52089E-05   -0.52228E-05  1044   0.181E-03    0.101E-01
RMM:  57    -0.117997608579E+04   -0.49232E-05   -0.47744E-05   998   0.905E-04    0.115E-01
RMM:  58    -0.117997609014E+04   -0.43488E-05   -0.42703E-05   658   0.515E-04    0.137E-01
RMM:  59    -0.117997609412E+04   -0.39833E-05   -0.39447E-05   607   0.515E-04    0.145E-01
RMM:  60    -0.117997609778E+04   -0.36577E-05   -0.35790E-05   797   0.556E-04    0.161E-01
RMM:  61    -0.117997610124E+04   -0.34568E-05   -0.33637E-05   822   0.600E-04    0.177E-01
RMM:  62    -0.117997610432E+04   -0.30794E-05   -0.30199E-05   484   0.416E-04    0.198E-01
RMM:  63    -0.117997610722E+04   -0.29016E-05   -0.28271E-05   560   0.432E-04    0.216E-01
RMM:  64    -0.117997610984E+04   -0.26258E-05   -0.25329E-05   499   0.416E-04    0.244E-01
RMM:  65    -0.117997611228E+04   -0.24361E-05   -0.23771E-05   465   0.393E-04    0.264E-01
RMM:  66    -0.117997611440E+04   -0.21152E-05   -0.21182E-05   682   0.490E-04    0.263E-01
RMM:  67    -0.117997611647E+04   -0.20736E-05   -0.19883E-05   474   0.381E-04    0.293E-01
RMM:  68    -0.117997611828E+04   -0.18130E-05   -0.17867E-05   450   0.356E-04    0.307E-01
RMM:  69    -0.117997611997E+04   -0.16865E-05   -0.16894E-05   464   0.374E-04    0.323E-01
RMM:  70    -0.117997612147E+04   -0.15017E-05   -0.15080E-05   455   0.359E-04    0.334E-01
RMM:  71    -0.117997612282E+04   -0.13523E-05   -0.13954E-05   619   0.428E-04    0.343E-01
RMM:  72    -0.117997612405E+04   -0.12231E-05   -0.12487E-05   452   0.344E-04    0.353E-01
RMM:  73    -0.117997612528E+04   -0.12314E-05   -0.11711E-05   445   0.348E-04    0.371E-01
RMM:  74    -0.117997612629E+04   -0.10124E-05   -0.10463E-05   454   0.342E-04    0.380E-01
RMM:  75    -0.117997612732E+04   -0.10275E-05   -0.98284E-06   434   0.338E-04    0.396E-01
RMM:  76    -0.117997612826E+04   -0.93826E-06   -0.88043E-06   667   0.411E-04
   1 F= -.11872892E+04 E0= -.11872891E+04  d E =-.118729E+04  mag=    -0.9993
       N       E                     dE             d eps       ncg     rms          rms(c)
DAV:   1    -0.117997391371E+04    0.22136E-02   -0.26687E-01  1600   0.878E-01    0.648E-01
RMM:   2    -0.117997460006E+04   -0.68635E-03   -0.79583E-03  1669   0.143E-01    0.481E-01
RMM:   3    -0.117997454785E+04    0.52209E-04   -0.16414E-03  1638   0.621E-02    0.322E-01
RMM:   4    -0.117997457752E+04   -0.29667E-04   -0.42270E-04  2063   0.279E-02    0.322E-01
RMM:   5    -0.117997457723E+04    0.28713E-06   -0.45534E-05  2065   0.894E-03    0.321E-01
RMM:   6    -0.117997451866E+04    0.58567E-04   -0.33710E-04  1540   0.234E-02    0.191E-01
RMM:   7    -0.117997463022E+04   -0.11156E-03   -0.45145E-04  1551   0.264E-02    0.142E-01
RMM:   8    -0.117997453580E+04    0.94417E-04   -0.11813E-04  1536   0.153E-02    0.839E-02
RMM:   9    -0.117997451027E+04    0.25536E-04   -0.10660E-04  1539   0.121E-02    0.425E-02
RMM:  10    -0.117997450883E+04    0.14359E-05   -0.21547E-05  1671   0.640E-03    0.273E-02
RMM:  11    -0.117997450749E+04    0.13436E-05   -0.19945E-05  1572   0.569E-03    0.979E-03
RMM:  12    -0.117997450784E+04   -0.35410E-06   -0.27592E-06  1115   0.267E-03
   2 F= -.11872887E+04 E0= -.11872887E+04  d E =0.450335E-03  mag=    -0.9997
       N       E                     dE             d eps       ncg     rms          rms(c)
DAV:   1    -0.117997596710E+04   -0.14596E-02   -0.89865E-02  1760   0.509E-01    0.105E-01
RMM:   2    -0.117997616163E+04   -0.19453E-03   -0.23681E-03  1645   0.803E-02    0.983E-02
RMM:   3    -0.117997616673E+04   -0.50914E-05   -0.45304E-04  1683   0.335E-02    0.771E-02
RMM:   4    -0.117997612287E+04    0.43856E-04   -0.14585E-04  1631   0.175E-02    0.473E-02
RMM:   5    -0.117997611128E+04    0.11591E-04   -0.81462E-05  1583   0.121E-02    0.350E-02
RMM:   6    -0.117997610895E+04    0.23297E-05   -0.14467E-05  1590   0.597E-03    0.219E-02
RMM:   7    -0.117997610930E+04   -0.35521E-06   -0.64430E-06  1473   0.338E-03
   3 F= -.11872896E+04 E0= -.11872896E+04  d E =-.470857E-03  mag=    -0.9996
       N       E                     dE             d eps       ncg     rms          rms(c)
DAV:   1    -0.117997572322E+04    0.38573E-03   -0.23248E-01  1760   0.739E-01    0.149E-01
RMM:   2    -0.117997616465E+04   -0.44143E-03   -0.56252E-03  1725   0.108E-01    0.109E-01
RMM:   3    -0.117997618976E+04   -0.25118E-04   -0.10514E-03  1634   0.450E-02    0.794E-02
RMM:   4    -0.117997617149E+04    0.18273E-04   -0.22410E-04  1723   0.211E-02    0.635E-02
RMM:   5    -0.117997616714E+04    0.43542E-05   -0.12843E-04  1540   0.153E-02    0.416E-02
RMM:   6    -0.117997617391E+04   -0.67712E-05   -0.31380E-05  1633   0.814E-03    0.240E-02
RMM:   7    -0.117997617592E+04   -0.20095E-05   -0.92149E-06  1554   0.428E-03    0.148E-02
RMM:   8    -0.117997617683E+04   -0.91270E-06   -0.65474E-06  1304   0.303E-03
   4 F= -.11872902E+04 E0= -.11872901E+04  d E =-.520611E-03  mag=    -0.9997
       N       E                     dE             d eps       ncg     rms          rms(c)
DAV:   1    -0.117997621794E+04   -0.42020E-04   -0.17512E-03  1728   0.642E-02    0.125E-02
RMM:   2    -0.117997622086E+04   -0.29212E-05   -0.38484E-05  1725   0.905E-03    0.947E-03
RMM:   3    -0.117997622062E+04    0.24280E-06   -0.70380E-06  1293   0.380E-03
   5 F= -.11872902E+04 E0= -.11872901E+04  d E =-.524670E-03  mag=    -0.9997
       N       E                     dE             d eps       ncg     rms          rms(c)
DAV:   1    -0.117997633910E+04   -0.11824E-03   -0.11058E-01  1696   0.482E-01    0.783E-02
RMM:   2    -0.117997647853E+04   -0.13943E-03   -0.18023E-03  1644   0.614E-02    0.609E-02
RMM:   3    -0.117997648517E+04   -0.66393E-05   -0.29635E-04  1617   0.259E-02    0.453E-02
RMM:   4    -0.117997648744E+04   -0.22717E-05   -0.10392E-04  1609   0.146E-02    0.244E-02
RMM:   5    -0.117997649040E+04   -0.29678E-05   -0.18281E-05  1689   0.627E-03    0.186E-02
RMM:   6    -0.117997649372E+04   -0.33139E-05   -0.67239E-06  1447   0.354E-03    0.101E-02
RMM:   7    -0.117997649431E+04   -0.59070E-06   -0.16509E-06  1054   0.186E-03
   6 F= -.11872906E+04 E0= -.11872906E+04  d E =-.459490E-03  mag=    -0.9997
