       N       E                     dE             d eps       ncg     rms          rms(c)
DAV:   1     0.496324149110E+04    0.49632E+04   -0.17315E+05  1836   0.916E+02
DAV:   2    -0.444883168849E+02   -0.50077E+04   -0.45763E+04  2520   0.210E+02
DAV:   3    -0.119301561877E+04   -0.11485E+04   -0.11439E+04  2160   0.110E+02
DAV:   4    -0.124022511982E+04   -0.47210E+02   -0.46966E+02  2016   0.291E+01
DAV:   5    -0.124164704978E+04   -0.14219E+01   -0.14187E+01  2484   0.441E+00    0.717E+01
RMM:   6    -0.122871222017E+04    0.12935E+02   -0.79846E+00  1585   0.315E+00    0.612E+01
RMM:   7    -0.118476988780E+04    0.43942E+02   -0.77394E+01  1585   0.971E+00    0.403E+01
RMM:   8    -0.117677796018E+04    0.79919E+01   -0.63357E+01  1586   0.891E+00    0.161E+01
RMM:   9    -0.117898486774E+04   -0.22069E+01   -0.72182E+00  1622   0.310E+00    0.107E+01
RMM:  10    -0.117620379738E+04    0.27811E+01   -0.91579E+00  1584   0.319E+00    0.416E+00
RMM:  11    -0.117612136717E+04    0.82430E-01   -0.22224E-01  1612   0.523E-01    0.228E+00
RMM:  12    -0.117605227349E+04    0.69094E-01   -0.30222E-01  1584   0.567E-01    0.932E-01
RMM:  13    -0.117605058189E+04    0.16916E-02   -0.52201E-02  1596   0.254E-01    0.565E-01
RMM:  14    -0.117604304043E+04    0.75415E-02   -0.22366E-02  1607   0.157E-01    0.308E-01
RMM:  15    -0.117604251257E+04    0.52785E-03   -0.28331E-03  1603   0.437E-02    0.214E-01
RMM:  16    -0.117604253956E+04   -0.26988E-04   -0.10782E-03  1490   0.303E-02    0.125E-01
RMM:  17    -0.117604246713E+04    0.72427E-04   -0.53238E-04  1208   0.215E-02
   1 F= -.11831775E+04 E0= -.11831775E+04  d E =-.118318E+04  mag=    -0.0012
       N       E                     dE             d eps       ncg     rms          rms(c)
DAV:   1    -0.117604081526E+04    0.17243E-02   -0.93176E-01  1656   0.105E+00    0.959E-01
RMM:   2    -0.117604291969E+04   -0.21044E-02   -0.29064E-02  1615   0.153E-01    0.964E-01
RMM:   3    -0.117604242246E+04    0.49723E-03   -0.10646E-03  1318   0.319E-02    0.930E-01
RMM:   4    -0.117604179574E+04    0.62673E-03   -0.53559E-03  1584   0.605E-02    0.243E-01
RMM:   5    -0.117604204925E+04   -0.25351E-03   -0.68809E-04  1185   0.227E-02    0.172E-01
RMM:   6    -0.117604182422E+04    0.22503E-03   -0.26752E-03  1546   0.402E-02    0.102E-01
RMM:   7    -0.117604170309E+04    0.12113E-03   -0.22010E-04  1048   0.139E-02    0.228E-02
RMM:   8    -0.117604169442E+04    0.86645E-05   -0.58085E-05  1008   0.828E-03
   2 F= -.11831771E+04 E0= -.11831771E+04  d E =0.451336E-03  mag=    -0.0000
       N       E                     dE             d eps       ncg     rms          rms(c)
DAV:   1    -0.117604346363E+04   -0.17605E-02   -0.29284E-01  1656   0.593E-01    0.542E-01
RMM:   2    -0.117604403307E+04   -0.56944E-03   -0.86546E-03  1592   0.839E-02    0.542E-01
RMM:   3    -0.117604381721E+04    0.21586E-03   -0.24797E-04  1065   0.161E-02    0.516E-01
RMM:   4    -0.117604368482E+04    0.13238E-03   -0.24601E-03  1564   0.397E-02    0.105E-01
RMM:   5    -0.117604365016E+04    0.34662E-04   -0.65331E-05  1029   0.878E-03
   3 F= -.11831788E+04 E0= -.11831788E+04  d E =-.132272E-02  mag=    -0.0000
       N       E                     dE             d eps       ncg     rms          rms(c)
DAV:   1    -0.117604491446E+04   -0.12296E-02   -0.29158E-01  1656   0.722E-01    0.416E-01
RMM:   2    -0.117604524681E+04   -0.33235E-03   -0.63897E-03  1590   0.918E-02    0.392E-01
RMM:   3    -0.117604491306E+04    0.33375E-03   -0.40269E-04  1150   0.242E-02    0.310E-01
RMM:   4    -0.117604496880E+04   -0.55745E-04   -0.26743E-03  1584   0.489E-02    0.805E-02
RMM:   5    -0.117604479760E+04    0.17120E-03   -0.25616E-04  1028   0.127E-02    0.434E-02
RMM:   6    -0.117604479979E+04   -0.21844E-05   -0.93315E-05  1014   0.746E-03
   4 F= -.11831804E+04 E0= -.11831804E+04  d E =-.161641E-02  mag=     0.0000
       N       E                     dE             d eps       ncg     rms          rms(c)
DAV:   1    -0.117604476755E+04    0.30055E-04   -0.49065E-03  1764   0.944E-02    0.575E-02
RMM:   2    -0.117604477463E+04   -0.70776E-05   -0.10256E-04  1024   0.125E-02
   5 F= -.11831805E+04 E0= -.11831805E+04  d E =-.165143E-02  mag=     0.0000
       N       E                     dE             d eps       ncg     rms          rms(c)
DAV:   1    -0.117604539564E+04   -0.62809E-03   -0.36397E-01  1728   0.810E-01    0.398E-01
RMM:   2    -0.117604584192E+04   -0.44628E-03   -0.76416E-03  1588   0.110E-01    0.362E-01
RMM:   3    -0.117604552112E+04    0.32080E-03   -0.50312E-04  1260   0.284E-02    0.239E-01
RMM:   4    -0.117604558143E+04   -0.60311E-04   -0.11710E-03  1552   0.352E-02    0.633E-02
RMM:   5    -0.117604552322E+04    0.58210E-04   -0.97934E-05  1026   0.105E-02
   6 F= -.11831816E+04 E0= -.11831816E+04  d E =-.109772E-02  mag=     0.0000
       N       E                     dE             d eps       ncg     rms          rms(c)
DAV:   1    -0.117604552450E+04    0.56935E-04   -0.44953E-05  1368   0.992E-03    0.174E-02
RMM:   2    -0.117604552154E+04    0.29617E-05   -0.93767E-06   922   0.466E-03
   7 F= -.11831816E+04 E0= -.11831816E+04  d E =-.109572E-02  mag=    -0.0000
       N       E                     dE             d eps       ncg     rms          rms(c)
DAV:   1    -0.117604629064E+04   -0.76614E-03   -0.13129E-01  1728   0.519E-01    0.142E-01
RMM:   2    -0.117604647336E+04   -0.18272E-03   -0.27909E-03  1588   0.680E-02    0.136E-01
RMM:   3    -0.117604643505E+04    0.38311E-04   -0.10053E-04  1034   0.146E-02
   8 F= -.11831825E+04 E0= -.11831825E+04  d E =-.893384E-03  mag=     0.0000
       N       E                     dE             d eps       ncg     rms          rms(c)
DAV:   1    -0.117604549913E+04    0.97422E-03   -0.11511E+00  1584   0.154E+00    0.427E-01
RMM:   2    -0.117604731378E+04   -0.18146E-02   -0.23475E-02  1592   0.195E-01    0.406E-01
RMM:   3    -0.117604705789E+04    0.25589E-03   -0.98857E-04  1396   0.415E-02    0.365E-01
RMM:   4    -0.117604732243E+04   -0.26454E-03   -0.37383E-03  1568   0.635E-02    0.792E-02
RMM:   5    -0.117604711584E+04    0.20659E-03   -0.88349E-05  1066   0.125E-02    0.648E-02
RMM:   6    -0.117604706665E+04    0.49187E-04   -0.35269E-04  1250   0.168E-02
   9 F= -.11831830E+04 E0= -.11831830E+04  d E =-.145710E-02  mag=    -0.0000
       N       E                     dE             d eps       ncg     rms          rms(c)
DAV:   1    -0.117604688705E+04    0.22879E-03   -0.36800E-01  1728   0.985E-01    0.284E-01
RMM:   2    -0.117604763755E+04   -0.75051E-03   -0.10475E-02  1584   0.150E-01    0.262E-01
RMM:   3    -0.117604727985E+04    0.35770E-03   -0.51964E-04  1282   0.308E-02    0.209E-01
RMM:   4    -0.117604699713E+04    0.28272E-03   -0.24376E-03  1580   0.534E-02    0.776E-02
RMM:   5    -0.117604690254E+04    0.94595E-04   -0.95751E-05  1018   0.122E-02
  10 F= -.11831828E+04 E0= -.11831828E+04  d E =0.263455E-03  mag=    -0.0000
       N       E                     dE             d eps       ncg     rms          rms(c)
DAV:   1    -0.117604847835E+04   -0.14812E-02   -0.10135E-01  1728   0.517E-01    0.148E-01
RMM:   2    -0.117604865157E+04   -0.17321E-03   -0.27413E-03  1584   0.759E-02    0.136E-01
RMM:   3    -0.117604853209E+04    0.11948E-03   -0.12580E-04  1016   0.164E-02    0.108E-01
RMM:   4    -0.117604843570E+04    0.96388E-04   -0.76698E-04  1540   0.312E-02
  11 F= -.11831844E+04 E0= -.11831844E+04  d E =-.132023E-02  mag=     0.0000
