       N       E                     dE             d eps       ncg     rms          rms(c)
DAV:   1     0.460346841378E+04    0.46035E+04   -0.17615E+05  1888   0.934E+02
DAV:   2    -0.979268582775E+02   -0.47014E+04   -0.42736E+04  2464   0.210E+02
DAV:   3    -0.118557105207E+04   -0.10876E+04   -0.10765E+04  2016   0.109E+02
DAV:   4    -0.123085136762E+04   -0.45280E+02   -0.45010E+02  1920   0.292E+01
DAV:   5    -0.123202738182E+04   -0.11760E+01   -0.11735E+01  2304   0.444E+00    0.752E+01
RMM:   6    -0.121922619054E+04    0.12801E+02   -0.64745E+01  1645   0.794E+00    0.666E+01
RMM:   7    -0.120435176753E+04    0.14874E+02   -0.83271E+00  1560   0.387E+00    0.460E+01
RMM:   8    -0.119180339044E+04    0.12548E+02   -0.90857E+00  1549   0.389E+00    0.372E+01
RMM:   9    -0.116522571217E+04    0.26578E+02   -0.55863E+01  1863   0.901E+00    0.211E+01
RMM:  10    -0.116355833545E+04    0.16674E+01   -0.17088E+01  1561   0.546E+00    0.117E+01
RMM:  11    -0.116453678087E+04   -0.97845E+00   -0.31772E+00  1569   0.267E+00    0.719E+00
RMM:  12    -0.116403632066E+04    0.50046E+00   -0.13555E+00  1567   0.151E+00    0.403E+00
RMM:  13    -0.116399340737E+04    0.42913E-01   -0.18180E-01  1577   0.685E-01    0.252E+00
RMM:  14    -0.116392878510E+04    0.64622E-01   -0.11383E-01  1552   0.476E-01    0.150E+00
RMM:  15    -0.116391471813E+04    0.14067E-01   -0.13616E-01  1570   0.484E-01    0.565E-01
RMM:  16    -0.116391627563E+04   -0.15575E-02   -0.13035E-02  1577   0.185E-01    0.336E-01
RMM:  17    -0.116391577052E+04    0.50510E-03   -0.31855E-03  1594   0.873E-02    0.221E-01
RMM:  18    -0.116391606222E+04   -0.29170E-03   -0.19419E-03  1574   0.668E-02    0.111E-01
RMM:  19    -0.116391631852E+04   -0.25629E-03   -0.11422E-03  1629   0.494E-02    0.105E-01
RMM:  20    -0.116391629343E+04    0.25092E-04   -0.24049E-04  1610   0.239E-02    0.714E-02
RMM:  21    -0.116391632258E+04   -0.29148E-04   -0.80771E-05  1713   0.133E-02    0.637E-02
RMM:  22    -0.116391634118E+04   -0.18605E-04   -0.10616E-04  1576   0.149E-02    0.219E-02
RMM:  23    -0.116391635057E+04   -0.93858E-05   -0.43855E-05  1551   0.907E-03    0.121E-02
RMM:  24    -0.116391635386E+04   -0.32990E-05   -0.11218E-05  1623   0.487E-03    0.918E-03
RMM:  25    -0.116391635600E+04   -0.21327E-05   -0.92075E-06  1509   0.420E-03    0.505E-03
RMM:  26    -0.116391635749E+04   -0.14875E-05   -0.40624E-06  1241   0.272E-03    0.419E-03
RMM:  27    -0.116391635781E+04   -0.32194E-06   -0.11437E-06  1025   0.160E-03
   1 F= -.11639164E+04 E0= -.11639075E+04  d E =-.116392E+04  mag=     3.3356
       N       E                     dE             d eps       ncg     rms          rms(c)
DAV:   1    -0.116382690105E+04    0.89456E-01   -0.12805E+01  1824   0.739E+00    0.156E+00
RMM:   2    -0.116389821247E+04   -0.71311E-01   -0.71893E-01  1704   0.113E+00    0.122E+00
RMM:   3    -0.116391793223E+04   -0.19720E-01   -0.18489E-01  1806   0.445E-01    0.893E-01
RMM:   4    -0.116391901316E+04   -0.10809E-02   -0.28313E-02  1809   0.189E-01    0.622E-01
RMM:   5    -0.116391731646E+04    0.16967E-02   -0.94686E-03  1625   0.115E-01    0.387E-01
RMM:   6    -0.116391682472E+04    0.49174E-03   -0.68400E-03  1574   0.107E-01    0.199E-01
RMM:   7    -0.116391743308E+04   -0.60836E-03   -0.20890E-03  1635   0.608E-02    0.135E-01
RMM:   8    -0.116391748415E+04   -0.51061E-04   -0.47200E-04  1684   0.324E-02    0.993E-02
RMM:   9    -0.116391766414E+04   -0.17999E-03   -0.48606E-04  1563   0.309E-02    0.784E-02
RMM:  10    -0.116391790724E+04   -0.24310E-03   -0.36161E-04  1565   0.254E-02    0.773E-02
RMM:  11    -0.116391743881E+04    0.46842E-03   -0.21583E-04  1551   0.232E-02    0.810E-02
RMM:  12    -0.116391788407E+04   -0.44526E-03   -0.12155E-04  1562   0.167E-02    0.805E-02
RMM:  13    -0.116391808458E+04   -0.20051E-03   -0.15169E-04  1588   0.168E-02    0.863E-02
RMM:  14    -0.116391432791E+04    0.37567E-02   -0.52866E-03  2498   0.101E-01    0.741E-02
RMM:  15    -0.116391659899E+04   -0.22711E-02   -0.13435E-02  2570   0.167E-01    0.105E-01
RMM:  16    -0.116391199206E+04    0.46069E-02   -0.17126E-02  2573   0.193E-01    0.816E-02
RMM:  17    -0.116390653486E+04    0.54572E-02   -0.15070E-02  2575   0.157E-01    0.265E-01
RMM:  18    -0.116391567138E+04   -0.91365E-02   -0.11182E-02  2562   0.159E-01    0.634E-02
RMM:  19    -0.116391650562E+04   -0.83424E-03   -0.65214E-04  2091   0.327E-02    0.577E-02
RMM:  20    -0.116391679359E+04   -0.28797E-03   -0.12198E-04  1725   0.154E-02    0.560E-02
RMM:  21    -0.116391662410E+04    0.16949E-03   -0.35464E-05  1536   0.110E-02    0.596E-02
RMM:  22    -0.116391705837E+04   -0.43427E-03   -0.10470E-03  2403   0.440E-02    0.562E-02
RMM:  23    -0.116391740859E+04   -0.35022E-03   -0.24856E-04  2064   0.197E-02    0.609E-02
RMM:  24    -0.116391766121E+04   -0.25262E-03   -0.21553E-04  1976   0.190E-02    0.669E-02
RMM:  25    -0.116391797387E+04   -0.31265E-03   -0.30428E-04  2130   0.225E-02    0.759E-02
RMM:  26    -0.116391817006E+04   -0.19619E-03   -0.10629E-04  1812   0.136E-02    0.813E-02
RMM:  27    -0.116391805925E+04    0.11080E-03   -0.11292E-05  1513   0.666E-03    0.817E-02
RMM:  28    -0.116391812775E+04   -0.68491E-04   -0.11065E-05  1589   0.451E-03    0.831E-02
RMM:  29    -0.116391810021E+04    0.27538E-04   -0.30013E-06  1157   0.256E-03    0.837E-02
RMM:  30    -0.116391806664E+04    0.33564E-04   -0.55755E-07  1018   0.137E-03    0.836E-02
RMM:  31    -0.116391813762E+04   -0.70977E-04   -0.34869E-06  1193   0.271E-03    0.845E-02
RMM:  32    -0.116391807892E+04    0.58703E-04   -0.11133E-06  1033   0.194E-03    0.842E-02
RMM:  33    -0.116391806318E+04    0.15740E-04   -0.54535E-07  1013   0.115E-03    0.839E-02
RMM:  34    -0.116391763530E+04    0.42788E-03   -0.12466E-04  2358   0.154E-02    0.779E-02
RMM:  35    -0.116391695358E+04    0.68173E-03   -0.45252E-04  2551   0.279E-02    0.677E-02
RMM:  36    -0.116391659074E+04    0.36283E-03   -0.49229E-04  2556   0.278E-02    0.604E-02
RMM:  37    -0.116391641649E+04    0.17426E-03   -0.40063E-04  2557   0.247E-02    0.582E-02
RMM:  38    -0.116391681969E+04   -0.40320E-03   -0.26323E-05  1668   0.832E-03    0.568E-02
RMM:  39    -0.116391687165E+04   -0.51965E-04   -0.28437E-06  1158   0.233E-03    0.563E-02
RMM:  40    -0.116391685881E+04    0.12839E-04   -0.13277E-06  1053   0.153E-03    0.564E-02
RMM:  41    -0.116391684569E+04    0.13117E-04   -0.11023E-06  1032   0.147E-03    0.564E-02
RMM:  42    -0.116391675090E+04    0.94794E-04   -0.16034E-05  1733   0.549E-03    0.571E-02
RMM:  43    -0.116391672988E+04    0.21018E-04   -0.53793E-06  1372   0.306E-03    0.575E-02
RMM:  44    -0.116391656229E+04    0.16759E-03   -0.62141E-05  2117   0.105E-02    0.591E-02
RMM:  45    -0.116391661755E+04   -0.55256E-04   -0.41082E-06  1236   0.322E-03    0.589E-02
RMM:  46    -0.116391664396E+04   -0.26406E-04   -0.49415E-07  1018   0.142E-03    0.586E-02
RMM:  47    -0.116391672669E+04   -0.82734E-04   -0.13471E-05  1627   0.519E-03    0.574E-02
RMM:  48    -0.116391673223E+04   -0.55398E-05   -0.21779E-06  1108   0.207E-03    0.572E-02
RMM:  49    -0.116391670296E+04    0.29267E-04   -0.56559E-07  1011   0.141E-03    0.577E-02
RMM:  50    -0.116391675152E+04   -0.48561E-04   -0.33047E-06  1190   0.260E-03    0.570E-02
RMM:  51    -0.116391677839E+04   -0.26864E-04   -0.31608E-06  1168   0.239E-03    0.566E-02
RMM:  52    -0.116391685399E+04   -0.75605E-04   -0.17260E-05  1750   0.553E-03    0.559E-02
RMM:  53    -0.116391676520E+04    0.88798E-04   -0.63699E-06  1395   0.428E-03    0.569E-02
RMM:  54    -0.116391660870E+04    0.15649E-03   -0.48316E-05  1975   0.944E-03    0.583E-02
RMM:  55    -0.116391666669E+04   -0.57993E-04   -0.24369E-06  1136   0.279E-03    0.579E-02
RMM:  56    -0.116391661971E+04    0.46986E-04   -0.65571E-06  1454   0.335E-03    0.586E-02
RMM:  57    -0.116391620550E+04    0.41420E-03   -0.20315E-04  2467   0.194E-02    0.655E-02
RMM:  58    -0.116391675388E+04   -0.54837E-03   -0.31888E-04  2543   0.268E-02    0.556E-02
RMM:  59    -0.116391663303E+04    0.12084E-03   -0.28372E-05  1647   0.991E-03    0.583E-02
RMM:  60    -0.116391660612E+04    0.26909E-04   -0.33534E-06  1200   0.253E-03    0.589E-02
RMM:  61    -0.116391648371E+04    0.12242E-03   -0.29780E-05  1878   0.737E-03    0.610E-02
RMM:  62    -0.116391510685E+04    0.13769E-02   -0.12212E-03  2570   0.474E-02    0.892E-02
RMM:  63    -0.116391637086E+04   -0.12640E-02   -0.49409E-04  2555   0.353E-02    0.648E-02
RMM:  64    -0.116391648138E+04   -0.11053E-03   -0.60435E-05  2199   0.997E-03    0.622E-02
RMM:  65    -0.116391616586E+04    0.31552E-03   -0.89573E-05  2263   0.144E-02    0.700E-02
RMM:  66    -0.116391601915E+04    0.14671E-03   -0.53827E-05  2151   0.924E-03    0.749E-02
RMM:  67    -0.116391612962E+04   -0.11047E-03   -0.36728E-06  1191   0.365E-03    0.734E-02
RMM:  68    -0.116391614487E+04   -0.15254E-04   -0.29066E-07  1015   0.107E-03    0.730E-02
RMM:  69    -0.116391615384E+04   -0.89680E-05   -0.15864E-07   994   0.697E-04    0.727E-02
RMM:  70    -0.116391617062E+04   -0.16777E-04   -0.48425E-07  1009   0.107E-03    0.721E-02
RMM:  71    -0.116391618909E+04   -0.18475E-04   -0.77532E-07   996   0.127E-03    0.715E-02
RMM:  72    -0.116391664915E+04   -0.46005E-03   -0.98082E-04  2569   0.426E-02    0.552E-02
RMM:  73    -0.116391684232E+04   -0.19318E-03   -0.80557E-05  2215   0.118E-02    0.557E-02
RMM:  74    -0.116391677442E+04    0.67900E-04   -0.78536E-06  1364   0.515E-03    0.567E-02
RMM:  75    -0.116391688791E+04   -0.11348E-03   -0.30115E-05  1902   0.740E-03    0.553E-02
RMM:  76    -0.116391688459E+04    0.33179E-05   -0.34375E-06  1170   0.279E-03    0.554E-02
RMM:  77    -0.116391722130E+04   -0.33671E-03   -0.11649E-03  2569   0.468E-02    0.595E-02
RMM:  78    -0.116391701114E+04    0.21016E-03   -0.27423E-04  2490   0.280E-02    0.580E-02
RMM:  79    -0.116391711755E+04   -0.10641E-03   -0.38995E-06  1191   0.427E-03    0.573E-02
RMM:  80    -0.116391710776E+04    0.97967E-05   -0.14956E-06  1054   0.182E-03    0.570E-02
RMM:  81    -0.116391706791E+04    0.39843E-04   -0.50241E-06  1326   0.306E-03    0.567E-02
RMM:  82    -0.116391727453E+04   -0.20662E-03   -0.86343E-05  2256   0.132E-02    0.578E-02
RMM:  83    -0.116391722385E+04    0.50685E-04   -0.40824E-06  1201   0.409E-03    0.582E-02
RMM:  84    -0.116391715856E+04    0.65287E-04   -0.45938E-06  1306   0.343E-03    0.580E-02
RMM:  85    -0.116391719572E+04   -0.37165E-04   -0.62591E-07  1018   0.152E-03    0.579E-02
RMM:  86    -0.116391720154E+04   -0.58181E-05   -0.22670E-07  1007   0.706E-04    0.580E-02
RMM:  87    -0.116391718148E+04    0.20065E-04   -0.35044E-07  1003   0.994E-04    0.580E-02
RMM:  88    -0.116391714649E+04    0.34990E-04   -0.26100E-06  1136   0.232E-03    0.578E-02
RMM:  89    -0.116391715784E+04   -0.11351E-04   -0.29457E-07   978   0.109E-03    0.576E-02
RMM:  90    -0.116391716081E+04   -0.29686E-05   -0.67451E-08   764   0.469E-04    0.576E-02
RMM:  91    -0.116391714552E+04    0.15290E-04   -0.58330E-07   964   0.112E-03    0.575E-02
RMM:  92    -0.116391741200E+04   -0.26649E-03   -0.16774E-04  2410   0.183E-02    0.603E-02
RMM:  93    -0.116391704733E+04    0.36468E-03   -0.13798E-04  2423   0.183E-02    0.587E-02
RMM:  94    -0.116391700429E+04    0.43035E-04   -0.36500E-05  1971   0.767E-03    0.573E-02
RMM:  95    -0.116391720529E+04   -0.20100E-03   -0.29958E-05  1821   0.867E-03    0.573E-02
RMM:  96    -0.116391715368E+04    0.51608E-04   -0.15864E-06  1069   0.251E-03    0.576E-02
RMM:  97    -0.116391729172E+04   -0.13804E-03   -0.36704E-05  1929   0.850E-03    0.585E-02
RMM:  98    -0.116391731767E+04   -0.25943E-04   -0.92890E-06  1610   0.402E-03    0.595E-02
RMM:  99    -0.116391732479E+04   -0.71236E-05   -0.27490E-06  1141   0.236E-03    0.599E-02
RMM: 100    -0.116391716850E+04    0.15629E-03   -0.24605E-05  1767   0.729E-03
   2 F= -.11639172E+04 E0= -.11639041E+04  d E =-.810697E-03  mag=     3.6306
       N       E                     dE             d eps       ncg     rms          rms(c)
DAV:   1    -0.116391205558E+04    0.52692E-02   -0.30920E+00  1664   0.366E+00    0.814E-01
RMM:   2    -0.116393176220E+04   -0.19707E-01   -0.19651E-01  1684   0.559E-01    0.622E-01
RMM:   3    -0.116393786679E+04   -0.61046E-02   -0.57336E-02  1740   0.224E-01    0.403E-01
RMM:   4    -0.116393820959E+04   -0.34280E-03   -0.75028E-03  1840   0.924E-02    0.318E-01
RMM:   5    -0.116393767600E+04    0.53358E-03   -0.18916E-03  1594   0.562E-02    0.178E-01
RMM:   6    -0.116393761702E+04    0.58982E-04   -0.16613E-03  1589   0.498E-02    0.962E-02
RMM:   7    -0.116393772699E+04   -0.10996E-03   -0.33087E-04  1685   0.257E-02    0.653E-02
RMM:   8    -0.116393777583E+04   -0.48847E-04   -0.14841E-04  1647   0.166E-02    0.459E-02
RMM:   9    -0.116393779118E+04   -0.15348E-04   -0.79355E-05  1588   0.127E-02    0.399E-02
RMM:  10    -0.116393783088E+04   -0.39698E-04   -0.54473E-05  1623   0.988E-03    0.354E-02
RMM:  11    -0.116393780580E+04    0.25079E-04   -0.92108E-06  1457   0.535E-03    0.366E-02
RMM:  12    -0.116393789771E+04   -0.91910E-04   -0.94478E-05  1906   0.131E-02    0.394E-02
RMM:  13    -0.116393761806E+04    0.27965E-03   -0.21177E-04  2076   0.212E-02    0.338E-02
RMM:  14    -0.116393699707E+04    0.62099E-03   -0.10505E-03  2478   0.437E-02    0.271E-02
RMM:  15    -0.116393751536E+04   -0.51829E-03   -0.64260E-05  1819   0.125E-02    0.249E-02
RMM:  16    -0.116393759674E+04   -0.81377E-04   -0.20725E-05  1553   0.813E-03    0.236E-02
RMM:  17    -0.116393724949E+04    0.34725E-03   -0.29411E-03  2576   0.745E-02    0.490E-02
RMM:  18    -0.116393788162E+04   -0.63213E-03   -0.12722E-04  2078   0.215E-02    0.698E-02
RMM:  19    -0.116393662904E+04    0.12526E-02   -0.10535E-03  2531   0.458E-02    0.543E-02
RMM:  20    -0.116393695644E+04   -0.32739E-03   -0.41977E-04  2424   0.262E-02    0.376E-02
RMM:  21    -0.116393693542E+04    0.21019E-04   -0.45643E-04  2440   0.265E-02    0.340E-02
RMM:  22    -0.116393709668E+04   -0.16126E-03   -0.20990E-04  2293   0.173E-02    0.345E-02
RMM:  23    -0.116393743532E+04   -0.33863E-03   -0.52215E-05  1694   0.124E-02    0.296E-02
RMM:  24    -0.116393751536E+04   -0.80044E-04   -0.97510E-05  2006   0.140E-02    0.278E-02
RMM:  25    -0.116393754401E+04   -0.28652E-04   -0.55450E-05  1899   0.961E-03    0.280E-02
RMM:  26    -0.116393754090E+04    0.31076E-05   -0.14079E-05  1659   0.512E-03    0.288E-02
RMM:  27    -0.116393756341E+04   -0.22502E-04   -0.19280E-05  1689   0.565E-03    0.278E-02
RMM:  28    -0.116393624991E+04    0.13135E-02   -0.19907E-03  2571   0.609E-02    0.433E-02
RMM:  29    -0.116393733120E+04   -0.10813E-02   -0.11967E-04  2008   0.208E-02    0.322E-02
RMM:  30    -0.116393745300E+04   -0.12180E-03   -0.84084E-05  2122   0.140E-02    0.280E-02
RMM:  31    -0.116393749970E+04   -0.46701E-04   -0.99211E-05  2214   0.130E-02    0.250E-02
RMM:  32    -0.116393753075E+04   -0.31049E-04   -0.29530E-04  2475   0.218E-02    0.207E-02
RMM:  33    -0.116393756424E+04   -0.33494E-04   -0.48770E-04  2523   0.275E-02    0.248E-02
RMM:  34    -0.116393773222E+04   -0.16798E-03   -0.31487E-04  2449   0.214E-02    0.322E-02
RMM:  35    -0.116393777704E+04   -0.44820E-04   -0.23475E-05  1664   0.880E-03    0.326E-02
RMM:  36    -0.116393776806E+04    0.89791E-05   -0.31645E-06  1175   0.223E-03    0.328E-02
RMM:  37    -0.116393774138E+04    0.26686E-04   -0.19865E-06  1084   0.240E-03    0.326E-02
RMM:  38    -0.116393775300E+04   -0.11623E-04   -0.23815E-07  1008   0.918E-04    0.325E-02
RMM:  39    -0.116393779632E+04   -0.43321E-04   -0.99980E-06  1558   0.438E-03    0.335E-02
RMM:  40    -0.116393778393E+04    0.12393E-04   -0.62350E-07  1021   0.143E-03    0.338E-02
RMM:  41    -0.116393776998E+04    0.13947E-04   -0.38626E-07  1014   0.109E-03    0.336E-02
RMM:  42    -0.116393777880E+04   -0.88191E-05   -0.16939E-07   986   0.634E-04    0.334E-02
RMM:  43    -0.116393777507E+04    0.37276E-05   -0.56667E-08   833   0.440E-04    0.334E-02
RMM:  44    -0.116393764554E+04    0.12954E-03   -0.59960E-05  2088   0.107E-02    0.301E-02
RMM:  45    -0.116393761577E+04    0.29771E-04   -0.44978E-05  2032   0.845E-03    0.263E-02
RMM:  46    -0.116393759247E+04    0.23299E-04   -0.42411E-05  2024   0.825E-03    0.232E-02
RMM:  47    -0.116393758363E+04    0.88362E-05   -0.31586E-05  1951   0.707E-03    0.210E-02
RMM:  48    -0.116393746594E+04    0.11769E-03   -0.14183E-04  2413   0.157E-02    0.189E-02
RMM:  49    -0.116393741438E+04    0.51559E-04   -0.14291E-04  2429   0.148E-02    0.180E-02
RMM:  50    -0.116393752523E+04   -0.11085E-03   -0.94591E-06  1387   0.542E-03    0.168E-02
RMM:  51    -0.116393753436E+04   -0.91237E-05   -0.80467E-07  1037   0.155E-03    0.166E-02
RMM:  52    -0.116393752449E+04    0.98687E-05   -0.19086E-06  1107   0.182E-03    0.168E-02
RMM:  53    -0.116393755168E+04   -0.27188E-04   -0.15839E-05  1679   0.581E-03    0.162E-02
RMM:  54    -0.116393757602E+04   -0.24345E-04   -0.42167E-05  2010   0.852E-03    0.165E-02
RMM:  55    -0.116393759016E+04   -0.14134E-04   -0.95171E-06  1619   0.406E-03    0.170E-02
RMM:  56    -0.116393758123E+04    0.89279E-05   -0.10688E-06  1042   0.203E-03    0.173E-02
RMM:  57    -0.116393761992E+04   -0.38689E-04   -0.17825E-04  2455   0.183E-02    0.194E-02
RMM:  58    -0.116393761603E+04    0.38902E-05   -0.25713E-05  1676   0.942E-03    0.193E-02
RMM:  59    -0.116393754244E+04    0.73584E-04   -0.55332E-05  2089   0.102E-02    0.182E-02
RMM:  60    -0.116393749046E+04    0.51988E-04   -0.73823E-05  2238   0.110E-02    0.175E-02
RMM:  61    -0.116393753309E+04   -0.42631E-04   -0.74668E-06  1395   0.387E-03    0.170E-02
RMM:  62    -0.116393740117E+04    0.13191E-03   -0.15821E-04  2451   0.170E-02    0.188E-02
RMM:  63    -0.116393752532E+04   -0.12414E-03   -0.53591E-05  1948   0.122E-02    0.164E-02
RMM:  64    -0.116393753399E+04   -0.86692E-05   -0.48519E-06  1318   0.308E-03    0.163E-02
RMM:  65    -0.116393750971E+04    0.24282E-04   -0.86451E-06  1498   0.449E-03    0.171E-02
RMM:  66    -0.116393754985E+04   -0.40141E-04   -0.68291E-05  2138   0.118E-02    0.161E-02
RMM:  67    -0.116393736574E+04    0.18411E-03   -0.25757E-04  2504   0.231E-02    0.194E-02
RMM:  68    -0.116393746615E+04   -0.10041E-03   -0.10867E-05  1469   0.554E-03    0.183E-02
RMM:  69    -0.116393747637E+04   -0.10222E-04   -0.10106E-06  1044   0.164E-03    0.181E-02
RMM:  70    -0.116393747155E+04    0.48192E-05   -0.12610E-06  1051   0.151E-03    0.183E-02
RMM:  71    -0.116393747696E+04   -0.54104E-05   -0.36946E-07  1014   0.106E-03    0.180E-02
RMM:  72    -0.116393711579E+04    0.36117E-03   -0.49896E-04  2550   0.306E-02    0.296E-02
RMM:  73    -0.116393735340E+04   -0.23761E-03   -0.25024E-05  1767   0.945E-03    0.263E-02
RMM:  74    -0.116393741281E+04   -0.59414E-04   -0.61364E-05  2105   0.115E-02    0.215E-02
RMM:  75    -0.116393743978E+04   -0.26968E-04   -0.23896E-05  1852   0.616E-03    0.199E-02
RMM:  76    -0.116393746961E+04   -0.29825E-04   -0.90506E-05  2316   0.125E-02    0.172E-02
RMM:  77    -0.116393747916E+04   -0.95501E-05   -0.25075E-04  2482   0.204E-02    0.160E-02
RMM:  78    -0.116393756122E+04   -0.82061E-04   -0.16364E-05  1572   0.618E-03    0.164E-02
RMM:  79    -0.116393756135E+04   -0.13697E-06   -0.19306E-06  1107   0.200E-03
   3 F= -.11639376E+04 E0= -.11639252E+04  d E =-.212035E-01  mag=     3.5810
       N       E                     dE             d eps       ncg     rms          rms(c)
DAV:   1    -0.116378209434E+04    0.15547E+00   -0.87406E+00  1920   0.760E+00    0.201E+00
RMM:   2    -0.116390799480E+04   -0.12590E+00   -0.11603E+00  1711   0.110E+00    0.127E+00
RMM:   3    -0.116395905911E+04   -0.51064E-01   -0.36677E-01  1714   0.441E-01    0.589E-01
RMM:   4    -0.116396243464E+04   -0.33755E-02   -0.26356E-02  1847   0.160E-01    0.469E-01
RMM:   5    -0.116396286261E+04   -0.42797E-03   -0.41937E-03  1663   0.772E-02    0.293E-01
RMM:   6    -0.116396330389E+04   -0.44128E-03   -0.25994E-03  1610   0.667E-02    0.208E-01
RMM:   7    -0.116396471122E+04   -0.14073E-02   -0.22833E-03  1587   0.668E-02    0.162E-01
RMM:   8    -0.116396601415E+04   -0.13029E-02   -0.14275E-03  1628   0.505E-02    0.162E-01
RMM:   9    -0.116396552753E+04    0.48661E-03   -0.20207E-04  1585   0.239E-02    0.167E-01
RMM:  10    -0.116396816207E+04   -0.26345E-02   -0.62812E-03  2259   0.105E-01    0.122E-01
RMM:  11    -0.116396882198E+04   -0.65991E-03   -0.53918E-03  2240   0.915E-02    0.791E-02
RMM:  12    -0.116396938703E+04   -0.56505E-03   -0.12306E-03  1607   0.556E-02    0.921E-02
RMM:  13    -0.116396991672E+04   -0.52970E-03   -0.56044E-04  1667   0.316E-02    0.356E-02
RMM:  14    -0.116396996155E+04   -0.44823E-04   -0.24156E-04  1626   0.195E-02    0.250E-02
RMM:  15    -0.116396998829E+04   -0.26741E-04   -0.12377E-04  1789   0.137E-02    0.920E-03
RMM:  16    -0.116396998735E+04    0.93508E-06   -0.23696E-05  1570   0.840E-03    0.117E-02
RMM:  17    -0.116396999140E+04   -0.40518E-05   -0.39476E-05  1587   0.883E-03    0.745E-03
RMM:  18    -0.116396999821E+04   -0.68082E-05   -0.69765E-06  1461   0.422E-03    0.226E-03
RMM:  19    -0.116396999762E+04    0.58842E-06   -0.19359E-06  1082   0.237E-03
   4 F= -.11639700E+04 E0= -.11639650E+04  d E =-.324363E-01  mag=     4.8486
       N       E                     dE             d eps       ncg     rms          rms(c)
DAV:   1    -0.116396860983E+04    0.13884E-02   -0.99642E-02  1888   0.812E-01    0.209E-01
RMM:   2    -0.116397000485E+04   -0.13950E-02   -0.13185E-02  1708   0.116E-01    0.136E-01
RMM:   3    -0.116397057863E+04   -0.57379E-03   -0.42120E-03  1731   0.465E-02    0.559E-02
RMM:   4    -0.116397061275E+04   -0.34119E-04   -0.29574E-04  1804   0.168E-02    0.459E-02
RMM:   5    -0.116397061115E+04    0.15971E-05   -0.59273E-05  1628   0.865E-03    0.232E-02
RMM:   6    -0.116397061121E+04   -0.53453E-07   -0.24177E-05  1587   0.620E-03    0.122E-02
RMM:   7    -0.116397061600E+04   -0.47935E-05   -0.48488E-06  1236   0.344E-03    0.613E-03
RMM:   8    -0.116397061673E+04   -0.72957E-06   -0.13637E-06  1077   0.161E-03
   5 F= -.11639706E+04 E0= -.11639658E+04  d E =-.330554E-01  mag=     4.8591
       N       E                     dE             d eps       ncg     rms          rms(c)
DAV:   1    -0.116382807662E+04    0.14254E+00   -0.57611E+00  1984   0.656E+00    0.184E+00
RMM:   2    -0.116394171110E+04   -0.11363E+00   -0.10267E+00  1717   0.932E-01    0.116E+00
RMM:   3    -0.116398818544E+04   -0.46474E-01   -0.32501E-01  1729   0.372E-01    0.450E-01
RMM:   4    -0.116399065530E+04   -0.24699E-02   -0.22154E-02  1856   0.128E-01    0.375E-01
RMM:   5    -0.116399067906E+04   -0.23759E-04   -0.21694E-03  1716   0.496E-02    0.241E-01
RMM:   6    -0.116399044393E+04    0.23514E-03   -0.11082E-03  1604   0.403E-02    0.136E-01
RMM:   7    -0.116399050198E+04   -0.58050E-04   -0.23195E-04  1605   0.223E-02    0.589E-02
RMM:   8    -0.116399053802E+04   -0.36047E-04   -0.86940E-05  1663   0.130E-02    0.401E-02
RMM:   9    -0.116399056143E+04   -0.23405E-04   -0.29564E-05  1613   0.781E-03    0.204E-02
RMM:  10    -0.116399056378E+04   -0.23543E-05   -0.10161E-05  1550   0.430E-03    0.126E-02
RMM:  11    -0.116399056453E+04   -0.74752E-06   -0.42043E-06  1175   0.271E-03
   6 F= -.11639906E+04 E0= -.11639868E+04  d E =-.199478E-01  mag=     4.8956
       N       E                     dE             d eps       ncg     rms          rms(c)
DAV:   1    -0.116394356472E+04    0.46999E-01   -0.18209E+00  2016   0.367E+00    0.102E+00
RMM:   2    -0.116397896604E+04   -0.35401E-01   -0.32230E-01  1689   0.518E-01    0.647E-01
RMM:   3    -0.116399306653E+04   -0.14100E-01   -0.10355E-01  1741   0.205E-01    0.231E-01
RMM:   4    -0.116399365994E+04   -0.59341E-03   -0.63511E-03  1842   0.687E-02    0.198E-01
RMM:   5    -0.116399363634E+04    0.23595E-04   -0.66951E-04  1689   0.288E-02    0.122E-01
RMM:   6    -0.116399358349E+04    0.52850E-04   -0.42578E-04  1590   0.249E-02    0.603E-02
RMM:   7    -0.116399363039E+04   -0.46893E-04   -0.60606E-05  1605   0.121E-02    0.318E-02
RMM:   8    -0.116399364327E+04   -0.12887E-04   -0.28855E-05  1602   0.711E-03    0.196E-02
RMM:   9    -0.116399365295E+04   -0.96772E-05   -0.96428E-06  1616   0.443E-03    0.128E-02
RMM:  10    -0.116399365301E+04   -0.62249E-07   -0.33103E-06  1127   0.248E-03
   7 F= -.11639937E+04 E0= -.11639903E+04  d E =-.230363E-01  mag=     4.9101
       N       E                     dE             d eps       ncg     rms          rms(c)
DAV:   1    -0.116387306120E+04    0.12059E+00   -0.58684E+00  2048   0.647E+00    0.166E+00
RMM:   2    -0.116397120458E+04   -0.98143E-01   -0.87653E-01  1678   0.883E-01    0.108E+00
RMM:   3    -0.116400666255E+04   -0.35458E-01   -0.23143E-01  1724   0.337E-01    0.481E-01
RMM:   4    -0.116400908580E+04   -0.24232E-02   -0.17100E-02  1851   0.112E-01    0.323E-01
RMM:   5    -0.116400925635E+04   -0.17056E-03   -0.19211E-03  1719   0.474E-02    0.185E-01
RMM:   6    -0.116400915634E+04    0.10002E-03   -0.45399E-04  1665   0.266E-02    0.129E-01
RMM:   7    -0.116400918008E+04   -0.23744E-04   -0.49810E-04  1583   0.282E-02    0.472E-02
RMM:   8    -0.116400918486E+04   -0.47811E-05   -0.46638E-05  1704   0.109E-02    0.317E-02
RMM:   9    -0.116400918483E+04    0.32411E-07   -0.19079E-05  1537   0.579E-03    0.219E-02
RMM:  10    -0.116400919939E+04   -0.14564E-04   -0.12231E-05  1529   0.476E-03    0.964E-03
RMM:  11    -0.116400919984E+04   -0.44479E-06   -0.24213E-06  1118   0.228E-03
   8 F= -.11640092E+04 E0= -.11640063E+04  d E =-.155468E-01  mag=     4.9244
       N       E                     dE             d eps       ncg     rms          rms(c)
DAV:   1    -0.116399479479E+04    0.14405E-01   -0.53117E-01  2048   0.198E+00    0.562E-01
RMM:   2    -0.116400557432E+04   -0.10780E-01   -0.98191E-02  1677   0.278E-01    0.357E-01
RMM:   3    -0.116400998541E+04   -0.44111E-02   -0.31632E-02  1726   0.109E-01    0.122E-01
RMM:   4    -0.116401014852E+04   -0.16311E-03   -0.18252E-03  1845   0.363E-02    0.106E-01
RMM:   5    -0.116401013279E+04    0.15733E-04   -0.22937E-04  1680   0.165E-02    0.599E-02
RMM:   6    -0.116401013252E+04    0.26413E-06   -0.11330E-04  1597   0.126E-02    0.267E-02
RMM:   7    -0.116401015480E+04   -0.22276E-04   -0.17307E-05  1489   0.628E-03    0.172E-02
RMM:   8    -0.116401016100E+04   -0.62040E-05   -0.81541E-06  1385   0.387E-03    0.102E-02
RMM:   9    -0.116401016390E+04   -0.29000E-05   -0.26544E-06  1138   0.220E-03    0.801E-03
RMM:  10    -0.116401016411E+04   -0.20694E-06   -0.12597E-06  1051   0.149E-03
   9 F= -.11640102E+04 E0= -.11640074E+04  d E =-.165111E-01  mag=     4.9278
       N       E                     dE             d eps       ncg     rms          rms(c)
DAV:   1    -0.116389054767E+04    0.11962E+00   -0.45173E+00  1952   0.577E+00    0.163E+00
RMM:   2    -0.116398243346E+04   -0.91886E-01   -0.83207E-01  1691   0.809E-01    0.103E+00
RMM:   3    -0.116401853616E+04   -0.36103E-01   -0.26227E-01  1755   0.319E-01    0.379E-01
RMM:   4    -0.116402002687E+04   -0.14907E-02   -0.15539E-02  1849   0.105E-01    0.321E-01
RMM:   5    -0.116402000021E+04    0.26663E-04   -0.14508E-03  1712   0.407E-02    0.211E-01
RMM:   6    -0.116401978648E+04    0.21373E-03   -0.10447E-03  1588   0.386E-02    0.984E-02
RMM:   7    -0.116401989664E+04   -0.11016E-03   -0.12524E-04  1651   0.176E-02    0.511E-02
RMM:   8    -0.116401991363E+04   -0.16996E-04   -0.52630E-05  1599   0.982E-03    0.345E-02
RMM:   9    -0.116401993625E+04   -0.22618E-04   -0.26692E-05  1596   0.723E-03    0.208E-02
RMM:  10    -0.116401993918E+04   -0.29269E-05   -0.74903E-06  1458   0.376E-03    0.101E-02
RMM:  11    -0.116401994020E+04   -0.10251E-05   -0.29431E-06  1115   0.234E-03    0.537E-03
RMM:  12    -0.116401994047E+04   -0.26748E-06   -0.17503E-06  1084   0.164E-03
  10 F= -.11640199E+04 E0= -.11640174E+04  d E =-.977636E-02  mag=     4.9365
       N       E                     dE             d eps       ncg     rms          rms(c)
DAV:   1    -0.116401483829E+04    0.51019E-02   -0.19142E-01  2080   0.118E+00    0.333E-01
RMM:   2    -0.116401865315E+04   -0.38149E-02   -0.35029E-02  1682   0.165E-01    0.212E-01
RMM:   3    -0.116402024660E+04   -0.15934E-02   -0.11251E-02  1732   0.653E-02    0.731E-02
RMM:   4    -0.116402030370E+04   -0.57105E-04   -0.61817E-04  1824   0.216E-02    0.638E-02
RMM:   5    -0.116402029347E+04    0.10227E-04   -0.11041E-04  1634   0.111E-02    0.304E-02
RMM:   6    -0.116402030018E+04   -0.67017E-05   -0.29865E-05  1602   0.678E-03    0.144E-02
RMM:   7    -0.116402030889E+04   -0.87097E-05   -0.52939E-06  1185   0.334E-03    0.928E-03
RMM:   8    -0.116402031252E+04   -0.36307E-05   -0.24608E-06  1104   0.210E-03    0.527E-03
RMM:   9    -0.116402031387E+04   -0.13548E-05   -0.80451E-07  1044   0.127E-03    0.398E-03
RMM:  10    -0.116402031400E+04   -0.12443E-06   -0.33659E-07  1014   0.842E-04
  11 F= -.11640203E+04 E0= -.11640178E+04  d E =-.101499E-01  mag=     4.9380
       N       E                     dE             d eps       ncg     rms          rms(c)
DAV:   1    -0.116397187663E+04    0.48437E-01   -0.22784E+00  1920   0.399E+00    0.105E+00
RMM:   2    -0.116401063496E+04   -0.38758E-01   -0.35451E-01  1688   0.556E-01    0.669E-01
RMM:   3    -0.116402555657E+04   -0.14922E-01   -0.11033E-01  1727   0.224E-01    0.254E-01
RMM:   4    -0.116402617578E+04   -0.61921E-03   -0.70903E-03  1856   0.773E-02    0.219E-01
RMM:   5    -0.116402600052E+04    0.17526E-03   -0.95320E-04  1619   0.376E-02    0.114E-01
RMM:   6    -0.116402593614E+04    0.64374E-04   -0.50045E-04  1585   0.293E-02    0.572E-02
RMM:   7    -0.116402600601E+04   -0.69867E-04   -0.79419E-05  1625   0.139E-02    0.318E-02
RMM:   8    -0.116402602111E+04   -0.15104E-04   -0.37261E-05  1577   0.817E-03    0.210E-02
RMM:   9    -0.116402603258E+04   -0.11471E-04   -0.12771E-05  1650   0.492E-03    0.125E-02
RMM:  10    -0.116402603368E+04   -0.10961E-05   -0.50601E-06  1434   0.316E-03    0.522E-03
RMM:  11    -0.116402603412E+04   -0.44292E-06   -0.15938E-06  1071   0.184E-03
  12 F= -.11640260E+04 E0= -.11640237E+04  d E =-.572013E-02  mag=     4.9420
       N       E                     dE             d eps       ncg     rms          rms(c)
DAV:   1    -0.116402563835E+04    0.39533E-03   -0.18307E-02  2112   0.357E-01    0.934E-02
RMM:   2    -0.116402593250E+04   -0.29414E-03   -0.28326E-03  1690   0.497E-02    0.598E-02
RMM:   3    -0.116402606515E+04   -0.13265E-03   -0.88770E-04  1720   0.200E-02    0.224E-02
RMM:   4    -0.116402607164E+04   -0.64890E-05   -0.57120E-05  1521   0.710E-03    0.194E-02
RMM:   5    -0.116402606966E+04    0.19776E-05   -0.13211E-05  1527   0.435E-03    0.735E-03
RMM:   6    -0.116402607178E+04   -0.21207E-05   -0.32903E-06  1142   0.243E-03    0.437E-03
RMM:   7    -0.116402607326E+04   -0.14853E-05   -0.64183E-07  1035   0.123E-03    0.293E-03
RMM:   8    -0.116402607367E+04   -0.40414E-06   -0.28937E-07  1007   0.773E-04
  13 F= -.11640261E+04 E0= -.11640237E+04  d E =-.575967E-02  mag=     4.9424
       N       E                     dE             d eps       ncg     rms          rms(c)
DAV:   1    -0.116399785113E+04    0.28222E-01   -0.16760E+00  1888   0.329E+00    0.810E-01
RMM:   2    -0.116402111558E+04   -0.23264E-01   -0.21459E-01  1684   0.456E-01    0.521E-01
RMM:   3    -0.116403001220E+04   -0.88966E-02   -0.66115E-02  1731   0.185E-01    0.206E-01
RMM:   4    -0.116403039515E+04   -0.38295E-03   -0.42628E-03  1867   0.642E-02    0.177E-01
RMM:   5    -0.116403028156E+04    0.11359E-03   -0.71649E-04  1609   0.335E-02    0.844E-02
RMM:   6    -0.116403027842E+04    0.31347E-05   -0.30406E-04  1586   0.230E-02    0.451E-02
RMM:   7    -0.116403032937E+04   -0.50944E-04   -0.54341E-05  1640   0.111E-02    0.243E-02
RMM:   8    -0.116403034237E+04   -0.13007E-04   -0.22981E-05  1564   0.628E-03    0.176E-02
RMM:   9    -0.116403034868E+04   -0.63065E-05   -0.83630E-06  1552   0.404E-03    0.905E-03
RMM:  10    -0.116403035039E+04   -0.17053E-05   -0.35872E-06  1231   0.267E-03    0.395E-03
RMM:  11    -0.116403035044E+04   -0.52798E-07   -0.70498E-07  1039   0.127E-03
  14 F= -.11640304E+04 E0= -.11640280E+04  d E =-.427677E-02  mag=     4.9426
       N       E                     dE             d eps       ncg     rms          rms(c)
DAV:   1    -0.116402635298E+04    0.39974E-02   -0.21887E-01  1888   0.118E+00    0.292E-01
RMM:   2    -0.116402932880E+04   -0.29758E-02   -0.27828E-02  1686   0.164E-01    0.188E-01
RMM:   3    -0.116403052696E+04   -0.11982E-02   -0.86384E-03  1725   0.667E-02    0.725E-02
RMM:   4    -0.116403057871E+04   -0.51753E-04   -0.53774E-04  1848   0.232E-02    0.630E-02
RMM:   5    -0.116403056033E+04    0.18383E-04   -0.13185E-04  1608   0.140E-02    0.242E-02
RMM:   6    -0.116403056941E+04   -0.90844E-05   -0.32887E-05  1598   0.774E-03    0.144E-02
RMM:   7    -0.116403057820E+04   -0.87912E-05   -0.62586E-06  1243   0.373E-03    0.908E-03
RMM:   8    -0.116403058082E+04   -0.26118E-05   -0.27372E-06  1122   0.221E-03    0.603E-03
RMM:   9    -0.116403058183E+04   -0.10162E-05   -0.10748E-06  1035   0.147E-03    0.356E-03
RMM:  10    -0.116403058201E+04   -0.17815E-06   -0.51366E-07  1019   0.109E-03
  15 F= -.11640306E+04 E0= -.11640283E+04  d E =-.450834E-02  mag=     4.9427
       N       E                     dE             d eps       ncg     rms          rms(c)
DAV:   1    -0.116400474561E+04    0.25836E-01   -0.14235E+00  1888   0.300E+00    0.763E-01
RMM:   2    -0.116402523237E+04   -0.20487E-01   -0.18753E-01  1693   0.413E-01    0.488E-01
RMM:   3    -0.116403321080E+04   -0.79784E-02   -0.58467E-02  1731   0.167E-01    0.184E-01
RMM:   4    -0.116403351143E+04   -0.30063E-03   -0.33539E-03  1866   0.568E-02    0.159E-01
RMM:   5    -0.116403343262E+04    0.78802E-04   -0.56315E-04  1608   0.293E-02    0.725E-02
RMM:   6    -0.116403344514E+04   -0.12514E-04   -0.21232E-04  1594   0.189E-02    0.383E-02
RMM:   7    -0.116403349566E+04   -0.50523E-04   -0.39276E-05  1602   0.939E-03    0.217E-02
RMM:   8    -0.116403351122E+04   -0.15559E-04   -0.20974E-05  1549   0.599E-03    0.151E-02
RMM:   9    -0.116403351430E+04   -0.30813E-05   -0.53306E-06  1332   0.321E-03    0.942E-03
RMM:  10    -0.116403351452E+04   -0.21925E-06   -0.27730E-06  1149   0.230E-03
  16 F= -.11640335E+04 E0= -.11640312E+04  d E =-.293251E-02  mag=     4.9438
       N       E                     dE             d eps       ncg     rms          rms(c)
DAV:   1    -0.116401568863E+04    0.17826E-01   -0.90840E-01  1888   0.239E+00    0.609E-01
RMM:   2    -0.116402876272E+04   -0.13074E-01   -0.12024E-01  1693   0.329E-01    0.389E-01
RMM:   3    -0.116403390439E+04   -0.51417E-02   -0.37461E-02  1731   0.134E-01    0.146E-01
RMM:   4    -0.116403408173E+04   -0.17734E-03   -0.20696E-03  1843   0.453E-02    0.127E-01
RMM:   5    -0.116403402615E+04    0.55575E-04   -0.45183E-04  1609   0.255E-02    0.519E-02
RMM:   6    -0.116403404687E+04   -0.20711E-04   -0.12289E-04  1612   0.146E-02    0.291E-02
RMM:   7    -0.116403408202E+04   -0.35153E-04   -0.23883E-05  1587   0.736E-03    0.171E-02
RMM:   8    -0.116403409091E+04   -0.88866E-05   -0.10716E-05  1473   0.421E-03    0.106E-02
RMM:   9    -0.116403409460E+04   -0.36953E-05   -0.33703E-06  1193   0.249E-03    0.706E-03
RMM:  10    -0.116403409491E+04   -0.30755E-06   -0.20764E-06  1082   0.200E-03
  17 F= -.11640341E+04 E0= -.11640318E+04  d E =-.351290E-02  mag=     4.9447
       N       E                     dE             d eps       ncg     rms          rms(c)
DAV:   1    -0.116400479183E+04    0.29303E-01   -0.15920E+00  1888   0.319E+00    0.819E-01
RMM:   2    -0.116402841369E+04   -0.23622E-01   -0.21693E-01  1683   0.444E-01    0.524E-01
RMM:   3    -0.116403752151E+04   -0.91078E-02   -0.67256E-02  1720   0.181E-01    0.198E-01
RMM:   4    -0.116403784408E+04   -0.32257E-03   -0.40307E-03  1836   0.625E-02    0.171E-01
RMM:   5    -0.116403772502E+04    0.11906E-03   -0.75111E-04  1605   0.335E-02    0.793E-02
RMM:   6    -0.116403773692E+04   -0.11898E-04   -0.30922E-04  1587   0.228E-02    0.421E-02
RMM:   7    -0.116403778485E+04   -0.47928E-04   -0.54826E-05  1583   0.115E-02    0.263E-02
RMM:   8    -0.116403780107E+04   -0.16222E-04   -0.28774E-05  1561   0.744E-03    0.169E-02
RMM:   9    -0.116403780383E+04   -0.27573E-05   -0.84592E-06  1580   0.398E-03    0.119E-02
RMM:  10    -0.116403780310E+04    0.72728E-06   -0.42879E-06  1302   0.288E-03
  18 F= -.11640378E+04 E0= -.11640356E+04  d E =-.370820E-02  mag=     4.9469
       N       E                     dE             d eps       ncg     rms          rms(c)
DAV:   1    -0.116403349290E+04    0.43109E-02   -0.22816E-01  1920   0.120E+00    0.309E-01
RMM:   2    -0.116403683636E+04   -0.33435E-02   -0.31067E-02  1682   0.168E-01    0.198E-01
RMM:   3    -0.116403816760E+04   -0.13312E-02   -0.96826E-03  1714   0.684E-02    0.742E-02
RMM:   4    -0.116403821285E+04   -0.45250E-04   -0.54689E-04  1826   0.237E-02    0.645E-02
RMM:   5    -0.116403818674E+04    0.26103E-04   -0.15249E-04  1595   0.150E-02    0.237E-02
RMM:   6    -0.116403820251E+04   -0.15762E-04   -0.35415E-05  1606   0.799E-03    0.145E-02
RMM:   7    -0.116403821138E+04   -0.88758E-05   -0.68804E-06  1260   0.400E-03    0.978E-03
RMM:   8    -0.116403821459E+04   -0.32126E-05   -0.33579E-06  1144   0.246E-03    0.584E-03
RMM:   9    -0.116403821556E+04   -0.96660E-06   -0.11462E-06  1040   0.154E-03
  19 F= -.11640382E+04 E0= -.11640361E+04  d E =-.412065E-02  mag=     4.9477
       N       E                     dE             d eps       ncg     rms          rms(c)
DAV:   1    -0.116402992462E+04    0.82900E-02   -0.66684E-01  1856   0.202E+00    0.474E-01
RMM:   2    -0.116403784438E+04   -0.79198E-02   -0.74174E-02  1673   0.279E-01    0.308E-01
RMM:   3    -0.116404081275E+04   -0.29684E-02   -0.22676E-02  1705   0.115E-01    0.128E-01
RMM:   4    -0.116404093082E+04   -0.11807E-03   -0.15846E-03  1827   0.422E-02    0.110E-01
RMM:   5    -0.116404085779E+04    0.73032E-04   -0.44896E-04  1587   0.268E-02    0.439E-02
RMM:   6    -0.116404087887E+04   -0.21084E-04   -0.13555E-04  1600   0.158E-02    0.272E-02
RMM:   7    -0.116404089571E+04   -0.16840E-04   -0.21894E-05  1573   0.739E-03    0.172E-02
RMM:   8    -0.116404090072E+04   -0.50105E-05   -0.99809E-06  1539   0.439E-03    0.110E-02
RMM:   9    -0.116404090296E+04   -0.22367E-05   -0.48220E-06  1417   0.296E-03    0.608E-03
RMM:  10    -0.116404090332E+04   -0.35888E-06   -0.24679E-06  1119   0.221E-03
  20 F= -.11640409E+04 E0= -.11640388E+04  d E =-.268775E-02  mag=     4.9481
       N       E                     dE             d eps       ncg     rms          rms(c)
DAV:   1    -0.116403947862E+04    0.14243E-02   -0.99364E-02  1952   0.777E-01    0.182E-01
RMM:   2    -0.116404063139E+04   -0.11528E-02   -0.11032E-02  1671   0.107E-01    0.119E-01
RMM:   3    -0.116404109176E+04   -0.46037E-03   -0.33761E-03  1702   0.445E-02    0.498E-02
RMM:   4    -0.116404111035E+04   -0.18589E-04   -0.23543E-04  1822   0.163E-02    0.428E-02
RMM:   5    -0.116404109578E+04    0.14571E-04   -0.76474E-05  1580   0.110E-02    0.159E-02
RMM:   6    -0.116404110256E+04   -0.67783E-05   -0.21095E-05  1597   0.623E-03    0.103E-02
RMM:   7    -0.116404110598E+04   -0.34198E-05   -0.32704E-06  1138   0.284E-03    0.713E-03
RMM:   8    -0.116404110750E+04   -0.15260E-05   -0.17288E-06  1055   0.188E-03    0.437E-03
RMM:   9    -0.116404110769E+04   -0.18553E-06   -0.77861E-07  1025   0.125E-03
  21 F= -.11640411E+04 E0= -.11640390E+04  d E =-.289213E-02  mag=     4.9483
       N       E                     dE             d eps       ncg     rms          rms(c)
DAV:   1    -0.116403505964E+04    0.60479E-02   -0.51080E-01  1856   0.173E+00    0.397E-01
RMM:   2    -0.116404063022E+04   -0.55706E-02   -0.52456E-02  1677   0.233E-01    0.258E-01
RMM:   3    -0.116404276889E+04   -0.21387E-02   -0.16020E-02  1707   0.970E-02    0.107E-01
RMM:   4    -0.116404285906E+04   -0.90168E-04   -0.11196E-03  1838   0.353E-02    0.921E-02
RMM:   5    -0.116404282126E+04    0.37795E-04   -0.29721E-04  1582   0.218E-02    0.356E-02
RMM:   6    -0.116404284195E+04   -0.20692E-04   -0.79973E-05  1594   0.122E-02    0.218E-02
RMM:   7    -0.116404285798E+04   -0.16025E-04   -0.14774E-05  1587   0.591E-03    0.136E-02
RMM:   8    -0.116404286254E+04   -0.45596E-05   -0.56670E-06  1341   0.326E-03    0.846E-03
RMM:   9    -0.116404286446E+04   -0.19213E-05   -0.22599E-06  1119   0.211E-03    0.488E-03
RMM:  10    -0.116404286468E+04   -0.21763E-06   -0.13465E-06  1038   0.162E-03
  22 F= -.11640429E+04 E0= -.11640408E+04  d E =-.175699E-02  mag=     4.9490
