       N       E                     dE             d eps       ncg     rms          rms(c)
DAV:   1     0.475482902160E+04    0.47548E+04   -0.17435E+05  1872   0.911E+02
DAV:   2    -0.103532043625E+03   -0.48584E+04   -0.44394E+04  2520   0.207E+02
DAV:   3    -0.119969399576E+04   -0.10962E+04   -0.10912E+04  2088   0.108E+02
DAV:   4    -0.124453537483E+04   -0.44841E+02   -0.44628E+02  1980   0.295E+01
DAV:   5    -0.124583657058E+04   -0.13012E+01   -0.12985E+01  2340   0.472E+00    0.643E+01
RMM:   6    -0.123105309194E+04    0.14783E+02   -0.89879E+00  1634   0.342E+00    0.522E+01
RMM:   7    -0.118954534296E+04    0.41508E+02   -0.88253E+01  1640   0.106E+01    0.303E+01
RMM:   8    -0.118510562156E+04    0.44397E+01   -0.60739E+00  1709   0.337E+00    0.253E+01
RMM:   9    -0.117910841675E+04    0.59972E+01   -0.37346E+01  1606   0.699E+00    0.135E+01
RMM:  10    -0.117971124572E+04   -0.60283E+00   -0.47858E+00  1615   0.292E+00    0.104E+01
RMM:  11    -0.117817085759E+04    0.15404E+01   -0.64044E+00  1711   0.274E+00    0.594E+00
RMM:  12    -0.117776279482E+04    0.40806E+00   -0.30923E-01  1726   0.773E-01    0.343E+00
RMM:  13    -0.117764059025E+04    0.12220E+00   -0.20055E-01  1621   0.497E-01    0.206E+00
RMM:  14    -0.117761801837E+04    0.22572E-01   -0.10120E-01  1638   0.385E-01    0.771E-01
RMM:  15    -0.117762033021E+04   -0.23118E-02   -0.17229E-02  1775   0.185E-01    0.438E-01
RMM:  16    -0.117761868010E+04    0.16501E-02   -0.43363E-03  1722   0.709E-02    0.343E-01
RMM:  17    -0.117761899507E+04   -0.31498E-03   -0.70171E-04  1540   0.396E-02    0.205E-01
RMM:  18    -0.117761912397E+04   -0.12890E-03   -0.43867E-04  1278   0.271E-02    0.672E-02
RMM:  19    -0.117761913780E+04   -0.13835E-04   -0.90167E-05  1046   0.179E-02
   1 F= -.11846881E+04 E0= -.11846881E+04  d E =-.118469E+04  mag=     0.0046
       N       E                     dE             d eps       ncg     rms          rms(c)
DAV:   1    -0.117760439580E+04    0.14728E-01   -0.23898E+00  1800   0.202E+00    0.677E-01
RMM:   2    -0.117761947758E+04   -0.15082E-01   -0.16912E-01  1757   0.350E-01    0.723E-01
RMM:   3    -0.117761884163E+04    0.63595E-03   -0.83371E-03  1540   0.982E-02    0.805E-01
RMM:   4    -0.117761784273E+04    0.99891E-03   -0.25469E-03  1398   0.407E-02    0.769E-01
RMM:   5    -0.117761760135E+04    0.24138E-03   -0.17763E-03  1502   0.411E-02    0.696E-01
RMM:   6    -0.117761726467E+04    0.33668E-03   -0.13371E-03  1287   0.380E-02    0.550E-01
RMM:   7    -0.117761702902E+04    0.23565E-03   -0.21121E-04  1086   0.182E-02    0.540E-01
RMM:   8    -0.117761699829E+04    0.30735E-04   -0.45834E-05  1030   0.882E-03
   2 F= -.11846871E+04 E0= -.11846871E+04  d E =0.100834E-02  mag=    -0.0002
       N       E                     dE             d eps       ncg     rms          rms(c)
DAV:   1    -0.117761877743E+04   -0.17484E-02   -0.64404E-01  1800   0.106E+00    0.418E-01
RMM:   2    -0.117762250729E+04   -0.37299E-02   -0.47253E-02  1709   0.183E-01    0.298E-01
RMM:   3    -0.117762181292E+04    0.69437E-03   -0.30510E-03  1255   0.566E-02    0.201E-01
RMM:   4    -0.117762172558E+04    0.87337E-04   -0.48305E-04  1150   0.203E-02
   3 F= -.11846912E+04 E0= -.11846912E+04  d E =-.313595E-02  mag=     0.0001
       N       E                     dE             d eps       ncg     rms          rms(c)
DAV:   1    -0.117761848587E+04    0.33271E-02   -0.10702E+00  1728   0.132E+00    0.265E-01
RMM:   2    -0.117762119497E+04   -0.27091E-02   -0.31543E-02  1694   0.200E-01    0.323E-01
RMM:   3    -0.117762107659E+04    0.11837E-03   -0.15838E-03  1339   0.543E-02    0.373E-01
RMM:   4    -0.117762050056E+04    0.57603E-03   -0.60946E-04  1239   0.292E-02    0.307E-01
RMM:   5    -0.117762022744E+04    0.27312E-03   -0.14845E-03  1556   0.415E-02    0.200E-01
RMM:   6    -0.117762019847E+04    0.28974E-04   -0.64500E-05  1054   0.166E-02
   4 F= -.11846904E+04 E0= -.11846904E+04  d E =0.824200E-03  mag=    -0.0000
       N       E                     dE             d eps       ncg     rms          rms(c)
DAV:   1    -0.117762175753E+04   -0.15301E-02   -0.35917E-01  1728   0.774E-01    0.172E-01
RMM:   2    -0.117762281874E+04   -0.10612E-02   -0.12404E-02  1690   0.122E-01    0.128E-01
RMM:   3    -0.117762265590E+04    0.16284E-03   -0.63037E-04  1146   0.338E-02    0.121E-01
RMM:   4    -0.117762255344E+04    0.10246E-03   -0.15779E-04  1056   0.166E-02    0.884E-02
RMM:   5    -0.117762249260E+04    0.60837E-04   -0.57419E-04  1274   0.260E-02
   5 F= -.11846923E+04 E0= -.11846923E+04  d E =-.106251E-02  mag=     0.0000
       N       E                     dE             d eps       ncg     rms          rms(c)
DAV:   1    -0.117762184025E+04    0.71319E-03   -0.26475E-01  1872   0.852E-01    0.173E-01
RMM:   2    -0.117762348884E+04   -0.16486E-02   -0.18968E-02  1716   0.140E-01    0.139E-01
RMM:   3    -0.117762329549E+04    0.19335E-03   -0.10179E-03  1156   0.417E-02    0.114E-01
RMM:   4    -0.117762320537E+04    0.90116E-04   -0.28967E-04  1112   0.202E-02
   6 F= -.11846935E+04 E0= -.11846935E+04  d E =-.116782E-02  mag=    -0.0000
       N       E                     dE             d eps       ncg     rms          rms(c)
DAV:   1    -0.117762258856E+04    0.70692E-03   -0.37968E-02  1944   0.332E-01    0.850E-02
RMM:   2    -0.117762284065E+04   -0.25208E-03   -0.29938E-03  1358   0.510E-02    0.729E-02
RMM:   3    -0.117762283321E+04    0.74408E-05   -0.17900E-04  1052   0.189E-02
   7 F= -.11846933E+04 E0= -.11846933E+04  d E =-.974797E-03  mag=     0.0000
