       N       E                     dE             d eps       ncg     rms          rms(c)
DAV:   1     0.472577859724E+04    0.47258E+04   -0.17740E+05  1908   0.919E+02
DAV:   2    -0.104420162125E+03   -0.48302E+04   -0.44183E+04  2520   0.207E+02
DAV:   3    -0.120390938161E+04   -0.10995E+04   -0.10949E+04  2088   0.108E+02
DAV:   4    -0.124832727223E+04   -0.44418E+02   -0.44192E+02  2016   0.286E+01
DAV:   5    -0.124947856809E+04   -0.11513E+01   -0.11489E+01  2376   0.432E+00    0.700E+01
RMM:   6    -0.122937074868E+04    0.20108E+02   -0.20593E+01  1789   0.443E+00    0.540E+01
RMM:   7    -0.120505139434E+04    0.24319E+02   -0.24340E+01  1594   0.558E+00    0.377E+01
RMM:   8    -0.118161848388E+04    0.23433E+02   -0.39129E+01  1588   0.708E+00    0.242E+01
RMM:   9    -0.117990046887E+04    0.17180E+01   -0.41845E+01  1586   0.725E+00    0.934E+00
RMM:  10    -0.117919386712E+04    0.70660E+00   -0.10156E+00  1760   0.150E+00    0.713E+00
RMM:  11    -0.117865228546E+04    0.54158E+00   -0.20493E+00  1589   0.150E+00    0.258E+00
RMM:  12    -0.117848848766E+04    0.16380E+00   -0.24634E-01  1736   0.485E-01    0.126E+00
RMM:  13    -0.117845575457E+04    0.32733E-01   -0.11676E-01  1602   0.386E-01    0.610E-01
RMM:  14    -0.117845316284E+04    0.25917E-02   -0.11536E-02  1769   0.143E-01    0.425E-01
RMM:  15    -0.117845236345E+04    0.79939E-03   -0.52822E-03  1662   0.829E-02    0.268E-01
RMM:  16    -0.117845293433E+04   -0.57088E-03   -0.24259E-03  1604   0.603E-02    0.148E-01
RMM:  17    -0.117845292762E+04    0.67116E-05   -0.64293E-04  1295   0.290E-02
   1 F= -.11857977E+04 E0= -.11857977E+04  d E =-.118580E+04  mag=    -0.0001
       N       E                     dE             d eps       ncg     rms          rms(c)
DAV:   1    -0.117844960667E+04    0.33277E-02   -0.31628E-01  1728   0.982E-01    0.183E-01
RMM:   2    -0.117845177435E+04   -0.21677E-02   -0.23862E-02  1885   0.202E-01    0.152E-01
RMM:   3    -0.117845173043E+04    0.43913E-04   -0.14137E-03  1607   0.522E-02    0.168E-01
RMM:   4    -0.117845172752E+04    0.29104E-05   -0.16703E-04  1081   0.158E-02
   2 F= -.11857968E+04 E0= -.11857968E+04  d E =0.946698E-03  mag=    -0.0000
       N       E                     dE             d eps       ncg     rms          rms(c)
DAV:   1    -0.117845254372E+04   -0.81328E-03   -0.12495E-01  1584   0.615E-01    0.130E-01
RMM:   2    -0.117845340442E+04   -0.86071E-03   -0.86120E-03  1876   0.124E-01    0.758E-02
RMM:   3    -0.117845343638E+04   -0.31953E-04   -0.45257E-04  1194   0.310E-02
   3 F= -.11857983E+04 E0= -.11857983E+04  d E =-.602166E-03  mag=    -0.0000
