       N       E                     dE             d eps       ncg     rms          rms(c)
DAV:   1     0.467082517379E+04    0.46708E+04   -0.17306E+05  1764   0.986E+02
DAV:   2    -0.402470901658E+02   -0.47111E+04   -0.43298E+04  2268   0.216E+02
DAV:   3    -0.118399767092E+04   -0.11438E+04   -0.11388E+04  1872   0.115E+02
DAV:   4    -0.123358485571E+04   -0.49587E+02   -0.49226E+02  1836   0.319E+01
DAV:   5    -0.123477499983E+04   -0.11901E+01   -0.11869E+01  2052   0.465E+00    0.791E+01
RMM:   6    -0.122075469436E+04    0.14020E+02   -0.76643E+00  1440   0.336E+00    0.680E+01
RMM:   7    -0.117166666574E+04    0.49088E+02   -0.10012E+02  1440   0.118E+01    0.363E+01
RMM:   8    -0.116771582289E+04    0.39508E+01   -0.17519E+01  1440   0.525E+00    0.226E+01
RMM:   9    -0.116852396049E+04   -0.80814E+00   -0.20932E+01  1440   0.563E+00    0.970E+00
RMM:  10    -0.116723422489E+04    0.12897E+01   -0.12394E+00  1451   0.144E+00    0.724E+00
RMM:  11    -0.116707886424E+04    0.15536E+00   -0.65105E-01  1441   0.930E-01    0.492E+00
RMM:  12    -0.116697093412E+04    0.10793E+00   -0.27665E-01  1440   0.600E-01    0.243E+00
RMM:  13    -0.116688391098E+04    0.87023E-01   -0.36074E-01  1441   0.679E-01    0.999E-01
RMM:  14    -0.116688658147E+04   -0.26705E-02   -0.28039E-02  1464   0.204E-01    0.634E-01
RMM:  15    -0.116688709729E+04   -0.51582E-03   -0.65739E-03  1442   0.939E-02    0.578E-01
RMM:  16    -0.116688653160E+04    0.56569E-03   -0.32806E-03  1441   0.687E-02    0.367E-01
RMM:  17    -0.116688678947E+04   -0.25787E-03   -0.89120E-04  1355   0.390E-02    0.154E-01
RMM:  18    -0.116688683036E+04   -0.40891E-04   -0.39510E-04  1072   0.244E-02
   1 F= -.11741921E+04 E0= -.11741907E+04  d E =-.117419E+04  mag=    -0.9628
       N       E                     dE             d eps       ncg     rms          rms(c)
DAV:   1    -0.116688719207E+04   -0.40260E-03   -0.42345E-01  1548   0.109E+00    0.667E-01
RMM:   2    -0.116688759847E+04   -0.40640E-03   -0.11278E-02  1440   0.159E-01    0.556E-01
RMM:   3    -0.116688615521E+04    0.14433E-02   -0.24317E-03  1440   0.621E-02    0.320E-01
RMM:   4    -0.116688603930E+04    0.11592E-03   -0.32158E-03  1440   0.669E-02    0.934E-02
RMM:   5    -0.116688585084E+04    0.18846E-03   -0.43545E-04  1111   0.232E-02    0.583E-02
RMM:   6    -0.116688586270E+04   -0.11864E-04   -0.55549E-05   881   0.103E-02
   2 F= -.11741916E+04 E0= -.11741900E+04  d E =0.451395E-03  mag=    -0.9619
       N       E                     dE             d eps       ncg     rms          rms(c)
DAV:   1    -0.116688792461E+04   -0.20738E-02   -0.13338E-01  1476   0.613E-01    0.398E-01
RMM:   2    -0.116688797934E+04   -0.54734E-04   -0.30343E-03  1440   0.861E-02    0.331E-01
RMM:   3    -0.116688747893E+04    0.50042E-03   -0.83971E-04  1440   0.363E-02    0.171E-01
RMM:   4    -0.116688743587E+04    0.43054E-04   -0.81218E-04  1430   0.337E-02
   3 F= -.11741929E+04 E0= -.11741913E+04  d E =-.831209E-03  mag=    -0.9637
