       N       E                     dE             d eps       ncg     rms          rms(c)
DAV:   1     0.481433628551E+04    0.48143E+04   -0.17887E+05  1856   0.951E+02
DAV:   2    -0.558318092213E+02   -0.48702E+04   -0.44555E+04  2400   0.215E+02
DAV:   3    -0.119636659396E+04   -0.11405E+04   -0.11338E+04  2080   0.113E+02
DAV:   4    -0.124341516935E+04   -0.47049E+02   -0.46725E+02  1920   0.295E+01
DAV:   5    -0.124457749709E+04   -0.11623E+01   -0.11584E+01  2240   0.429E+00    0.796E+01
RMM:   6    -0.122533295870E+04    0.19245E+02   -0.36646E+01  1633   0.677E+00    0.659E+01
RMM:   7    -0.121306883194E+04    0.12264E+02   -0.71786E+00  1542   0.379E+00    0.478E+01
RMM:   8    -0.119267526554E+04    0.20394E+02   -0.21018E+01  1585   0.587E+00    0.352E+01
RMM:   9    -0.118202117204E+04    0.10654E+02   -0.12062E+01  1544   0.484E+00    0.286E+01
RMM:  10    -0.117328008578E+04    0.87411E+01   -0.16739E+01  1620   0.538E+00    0.183E+01
RMM:  11    -0.117312034587E+04    0.15974E+00   -0.92091E+00  1551   0.414E+00    0.109E+01
RMM:  12    -0.117366145399E+04   -0.54111E+00   -0.23208E+00  1569   0.227E+00    0.745E+00
RMM:  13    -0.117321199047E+04    0.44946E+00   -0.79784E-01  1549   0.124E+00    0.423E+00
RMM:  14    -0.117317949223E+04    0.32498E-01   -0.25077E-01  1539   0.735E-01    0.252E+00
RMM:  15    -0.117316307177E+04    0.16420E-01   -0.72144E-02  1604   0.402E-01    0.977E-01
RMM:  16    -0.117316486906E+04   -0.17973E-02   -0.74587E-02  1543   0.365E-01    0.555E-01
RMM:  17    -0.117316228304E+04    0.25860E-02   -0.87155E-03  1561   0.146E-01    0.342E-01
RMM:  18    -0.117316214590E+04    0.13713E-03   -0.36535E-03  1580   0.860E-02    0.256E-01
RMM:  19    -0.117316269749E+04   -0.55158E-03   -0.25541E-03  1541   0.726E-02    0.129E-01
RMM:  20    -0.117316253763E+04    0.15986E-03   -0.49413E-04  1543   0.339E-02    0.105E-01
RMM:  21    -0.117316254030E+04   -0.26722E-05   -0.20612E-04  1598   0.203E-02    0.758E-02
RMM:  22    -0.117316255248E+04   -0.12180E-04   -0.56834E-05  1545   0.109E-02    0.502E-02
RMM:  23    -0.117316254766E+04    0.48185E-05   -0.30421E-05  1594   0.728E-03    0.449E-02
RMM:  24    -0.117316254633E+04    0.13353E-05   -0.48163E-06  1264   0.328E-03    0.423E-02
RMM:  25    -0.117316255051E+04   -0.41859E-05   -0.87540E-06  1436   0.369E-03    0.387E-02
RMM:  26    -0.117316255294E+04   -0.24269E-05   -0.39270E-06  1217   0.281E-03    0.349E-02
RMM:  27    -0.117316254407E+04    0.88742E-05   -0.25830E-05  1769   0.610E-03    0.126E-02
RMM:  28    -0.117316254438E+04   -0.31729E-06   -0.41205E-06  1295   0.274E-03
   1 F= -.11802167E+04 E0= -.11802167E+04  d E =-.118022E+04  mag=     1.0004
       N       E                     dE             d eps       ncg     rms          rms(c)
DAV:   1    -0.117315890737E+04    0.36367E-02   -0.54727E-01  1664   0.133E+00    0.166E-01
RMM:   2    -0.117316055833E+04   -0.16510E-02   -0.18435E-02  1611   0.212E-01    0.169E-01
RMM:   3    -0.117316087743E+04   -0.31910E-03   -0.40374E-03  1858   0.922E-02    0.165E-01
RMM:   4    -0.117316083333E+04    0.44104E-04   -0.66308E-04  2084   0.356E-02    0.162E-01
RMM:   5    -0.117316057133E+04    0.26200E-03   -0.22496E-04  1578   0.190E-02    0.133E-01
RMM:   6    -0.117316050143E+04    0.69903E-04   -0.30088E-03  1537   0.604E-02    0.740E-02
RMM:   7    -0.117316034404E+04    0.15740E-03   -0.26623E-04  1551   0.266E-02    0.566E-02
RMM:   8    -0.117316030529E+04    0.38744E-04   -0.19706E-04  1552   0.159E-02    0.311E-02
RMM:   9    -0.117316032075E+04   -0.15460E-04   -0.37103E-05  1556   0.846E-03    0.301E-02
RMM:  10    -0.117316030194E+04    0.18808E-04   -0.45442E-05  1540   0.784E-03    0.109E-02
RMM:  11    -0.117316030131E+04    0.63678E-06   -0.20930E-05  1527   0.545E-03    0.701E-03
RMM:  12    -0.117316030134E+04   -0.34895E-07   -0.25426E-06  1123   0.248E-03
   2 F= -.11802148E+04 E0= -.11802148E+04  d E =0.189816E-02  mag=     1.0000
       N       E                     dE             d eps       ncg     rms          rms(c)
DAV:   1    -0.117316293320E+04   -0.26319E-02   -0.23374E-01  1728   0.863E-01    0.112E-01
RMM:   2    -0.117316335736E+04   -0.42416E-03   -0.53009E-03  1583   0.130E-01    0.109E-01
RMM:   3    -0.117316340582E+04   -0.48458E-04   -0.10615E-03  1694   0.533E-02    0.101E-01
RMM:   4    -0.117316332795E+04    0.77872E-04   -0.20730E-04  1773   0.225E-02    0.906E-02
RMM:   5    -0.117316320861E+04    0.11934E-03   -0.41352E-04  1552   0.243E-02    0.460E-02
RMM:   6    -0.117316322370E+04   -0.15089E-04   -0.24653E-04  1561   0.194E-02    0.350E-02
RMM:   7    -0.117316319177E+04    0.31927E-04   -0.57549E-05  1551   0.978E-03    0.208E-02
RMM:   8    -0.117316319612E+04   -0.43527E-05   -0.30415E-05  1558   0.692E-03    0.100E-02
RMM:   9    -0.117316319563E+04    0.48837E-06   -0.35646E-06  1279   0.310E-03
   3 F= -.11802175E+04 E0= -.11802175E+04  d E =-.770265E-03  mag=     1.0000
