       N       E                     dE             d eps       ncg     rms          rms(c)
DAV:   1     0.500698598318E+04    0.50070E+04   -0.17786E+05  1872   0.932E+02
DAV:   2    -0.466690177157E+02   -0.50537E+04   -0.46387E+04  2520   0.211E+02
DAV:   3    -0.120416585733E+04   -0.11575E+04   -0.11520E+04  2196   0.111E+02
DAV:   4    -0.124874853223E+04   -0.44583E+02   -0.44330E+02  1980   0.280E+01
DAV:   5    -0.124985777440E+04   -0.11092E+01   -0.11066E+01  2340   0.411E+00    0.690E+01
RMM:   6    -0.123178243022E+04    0.18075E+02   -0.23349E+01  1584   0.481E+00    0.527E+01
RMM:   7    -0.121455468792E+04    0.17228E+02   -0.11192E+01  1584   0.391E+00    0.411E+01
RMM:   8    -0.118814680316E+04    0.26408E+02   -0.35815E+01  1584   0.689E+00    0.263E+01
RMM:   9    -0.118048590057E+04    0.76609E+01   -0.18501E+01  1584   0.496E+00    0.175E+01
RMM:  10    -0.118191830311E+04   -0.14324E+01   -0.13326E+01  1584   0.416E+00    0.831E+00
RMM:  11    -0.118151561995E+04    0.40268E+00   -0.96432E-01  1617   0.112E+00    0.507E+00
RMM:  12    -0.118100457216E+04    0.51105E+00   -0.15860E+00  1584   0.142E+00    0.189E+00
RMM:  13    -0.118086863544E+04    0.13594E+00   -0.16477E-01  1593   0.378E-01    0.104E+00
RMM:  14    -0.118085474142E+04    0.13894E-01   -0.62422E-02  1584   0.274E-01    0.492E-01
RMM:  15    -0.118085522330E+04   -0.48188E-03   -0.10742E-02  1592   0.128E-01    0.292E-01
RMM:  16    -0.118085444651E+04    0.77679E-03   -0.23597E-03  1590   0.564E-02    0.204E-01
RMM:  17    -0.118085447283E+04   -0.26319E-04   -0.84825E-04  1345   0.339E-02
   1 F= -.11880780E+04 E0= -.11880780E+04  d E =-.118808E+04  mag=     0.0105
       N       E                     dE             d eps       ncg     rms          rms(c)
DAV:   1    -0.118084540838E+04    0.90381E-02   -0.26239E+00  1620   0.238E+00    0.113E+00
RMM:   2    -0.118085477535E+04   -0.93670E-02   -0.11209E-01  1584   0.385E-01    0.105E+00
RMM:   3    -0.118085329903E+04    0.14763E-02   -0.41339E-03  1582   0.627E-02    0.851E-01
RMM:   4    -0.118085359953E+04   -0.30050E-03   -0.41624E-03  1584   0.731E-02    0.201E-01
RMM:   5    -0.118085346267E+04    0.13686E-03   -0.38218E-04  1152   0.224E-02    0.785E-02
RMM:   6    -0.118085335615E+04    0.10652E-03   -0.19118E-04  1063   0.146E-02    0.544E-02
RMM:   7    -0.118085332308E+04    0.33073E-04   -0.16236E-04  1036   0.147E-02
   2 F= -.11880786E+04 E0= -.11880786E+04  d E =-.612891E-03  mag=     0.0005
       N       E                     dE             d eps       ncg     rms          rms(c)
DAV:   1    -0.118085522293E+04   -0.18668E-02   -0.56968E-01  1620   0.112E+00    0.525E-01
RMM:   2    -0.118085702237E+04   -0.17994E-02   -0.22978E-02  1582   0.177E-01    0.500E-01
RMM:   3    -0.118085668534E+04    0.33703E-03   -0.76214E-04  1153   0.271E-02    0.424E-01
RMM:   4    -0.118085671565E+04   -0.30310E-04   -0.91085E-04  1549   0.347E-02
   3 F= -.11880812E+04 E0= -.11880812E+04  d E =-.318850E-02  mag=    -0.0002
       N       E                     dE             d eps       ncg     rms          rms(c)
DAV:   1    -0.118085721548E+04   -0.53013E-03   -0.10740E+00  1584   0.142E+00    0.508E-01
RMM:   2    -0.118085832364E+04   -0.11082E-02   -0.23457E-02  1584   0.192E-01    0.489E-01
RMM:   3    -0.118085788905E+04    0.43460E-03   -0.78630E-04  1306   0.342E-02    0.446E-01
RMM:   4    -0.118085760781E+04    0.28123E-03   -0.38542E-03  1584   0.681E-02    0.136E-01
RMM:   5    -0.118085765632E+04   -0.48504E-04   -0.25427E-04  1122   0.209E-02
   4 F= -.11880825E+04 E0= -.11880825E+04  d E =-.136199E-02  mag=    -0.0000
       N       E                     dE             d eps       ncg     rms          rms(c)
DAV:   1    -0.118085818856E+04   -0.58074E-03   -0.14025E-01  1728   0.512E-01    0.181E-01
RMM:   2    -0.118085826950E+04   -0.80941E-04   -0.29047E-03  1553   0.662E-02    0.173E-01
RMM:   3    -0.118085817127E+04    0.98226E-04   -0.95000E-05  1018   0.127E-02
   5 F= -.11880829E+04 E0= -.11880829E+04  d E =-.172381E-02  mag=     0.0000
       N       E                     dE             d eps       ncg     rms          rms(c)
DAV:   1    -0.118085866054E+04   -0.39104E-03   -0.48236E-01  1728   0.999E-01    0.204E-01
RMM:   2    -0.118085977152E+04   -0.11110E-02   -0.15134E-02  1584   0.149E-01    0.171E-01
RMM:   3    -0.118085952650E+04    0.24501E-03   -0.43993E-04  1137   0.251E-02    0.143E-01
RMM:   4    -0.118085961500E+04   -0.88503E-04   -0.71587E-04  1396   0.289E-02
   6 F= -.11880845E+04 E0= -.11880845E+04  d E =-.160928E-02  mag=    -0.0000
       N       E                     dE             d eps       ncg     rms          rms(c)
DAV:   1    -0.118085910454E+04    0.42196E-03   -0.31946E-01  1728   0.812E-01    0.197E-01
RMM:   2    -0.118085979845E+04   -0.69391E-03   -0.10073E-02  1584   0.121E-01    0.172E-01
RMM:   3    -0.118085968507E+04    0.11338E-03   -0.27185E-04  1086   0.195E-02    0.147E-01
RMM:   4    -0.118085991063E+04   -0.22556E-03   -0.28281E-04  1120   0.214E-02    0.324E-02
RMM:   5    -0.118085991444E+04   -0.38058E-05   -0.29847E-05  1004   0.867E-03
   7 F= -.11880849E+04 E0= -.11880849E+04  d E =-.204071E-02  mag=     0.0000
       N       E                     dE             d eps       ncg     rms          rms(c)
DAV:   1    -0.118086066635E+04   -0.75572E-03   -0.41739E-01  1656   0.963E-01    0.197E-01
RMM:   2    -0.118086135609E+04   -0.68974E-03   -0.11881E-02  1584   0.141E-01    0.158E-01
RMM:   3    -0.118086117860E+04    0.17749E-03   -0.39324E-04  1164   0.252E-02    0.135E-01
RMM:   4    -0.118086126300E+04   -0.84409E-04   -0.29225E-04  1150   0.209E-02
   8 F= -.11880865E+04 E0= -.11880865E+04  d E =-.152896E-02  mag=    -0.0000
       N       E                     dE             d eps       ncg     rms          rms(c)
DAV:   1    -0.118086125638E+04   -0.77788E-04   -0.76776E-02  1728   0.413E-01    0.101E-01
RMM:   2    -0.118086132855E+04   -0.72167E-04   -0.21775E-03  1522   0.599E-02    0.839E-02
RMM:   3    -0.118086131154E+04    0.17011E-04   -0.71813E-05  1028   0.117E-02
   9 F= -.11880866E+04 E0= -.11880866E+04  d E =-.165537E-02  mag=     0.0000
       N       E                     dE             d eps       ncg     rms          rms(c)
DAV:   1    -0.118086243985E+04   -0.11113E-02   -0.21651E-01  1584   0.652E-01    0.153E-01
RMM:   2    -0.118086265117E+04   -0.21132E-03   -0.45637E-03  1584   0.883E-02    0.136E-01
RMM:   3    -0.118086260443E+04    0.46735E-04   -0.15236E-04  1064   0.168E-02
  10 F= -.11880880E+04 E0= -.11880880E+04  d E =-.135914E-02  mag=    -0.0000
       N       E                     dE             d eps       ncg     rms          rms(c)
DAV:   1    -0.118086161703E+04    0.10341E-02   -0.19348E+00  1584   0.195E+00    0.404E-01
RMM:   2    -0.118086439375E+04   -0.27767E-02   -0.40308E-02  1584   0.260E-01    0.354E-01
RMM:   3    -0.118086402602E+04    0.36773E-03   -0.15148E-03  1509   0.481E-02    0.308E-01
RMM:   4    -0.118086445724E+04   -0.43122E-03   -0.21398E-03  1538   0.533E-02    0.975E-02
RMM:   5    -0.118086450899E+04   -0.51752E-04   -0.13554E-04  1076   0.155E-02
  11 F= -.11880901E+04 E0= -.11880901E+04  d E =-.346680E-02  mag=     0.0000
       N       E                     dE             d eps       ncg     rms          rms(c)
DAV:   1    -0.118086560996E+04   -0.11527E-02   -0.32495E-01  1656   0.789E-01    0.153E-01
RMM:   2    -0.118086595983E+04   -0.34987E-03   -0.62036E-03  1584   0.106E-01    0.134E-01
RMM:   3    -0.118086591495E+04    0.44874E-04   -0.20710E-04  1096   0.200E-02
  12 F= -.11880915E+04 E0= -.11880915E+04  d E =-.146838E-02  mag=    -0.0000
       N       E                     dE             d eps       ncg     rms          rms(c)
DAV:   1    -0.118086363613E+04    0.23237E-02   -0.28869E+00  1584   0.235E+00    0.458E-01
RMM:   2    -0.118086752995E+04   -0.38938E-02   -0.54178E-02  1584   0.309E-01    0.392E-01
RMM:   3    -0.118086704933E+04    0.48061E-03   -0.22063E-03  1642   0.591E-02    0.330E-01
RMM:   4    -0.118086756934E+04   -0.52000E-03   -0.42474E-03  1576   0.736E-02    0.793E-02
RMM:   5    -0.118086749830E+04    0.71035E-04   -0.11348E-04  1076   0.148E-02
  13 F= -.11880933E+04 E0= -.11880933E+04  d E =-.324595E-02  mag=     0.0000
       N       E                     dE             d eps       ncg     rms          rms(c)
DAV:   1    -0.118086988023E+04   -0.23109E-02   -0.30528E-01  1584   0.908E-01    0.185E-01
RMM:   2    -0.118087048595E+04   -0.60572E-03   -0.81344E-03  1596   0.135E-01    0.164E-01
RMM:   3    -0.118087026666E+04    0.21929E-03   -0.34300E-04  1184   0.251E-02    0.136E-01
RMM:   4    -0.118087010992E+04    0.15674E-03   -0.14468E-03  1560   0.413E-02    0.643E-02
RMM:   5    -0.118087008408E+04    0.25834E-04   -0.60658E-05  1004   0.114E-02
  14 F= -.11880958E+04 E0= -.11880958E+04  d E =-.253066E-02  mag=    -0.0000
       N       E                     dE             d eps       ncg     rms          rms(c)
DAV:   1    -0.118087023655E+04   -0.12663E-03   -0.10501E-02  1800   0.168E-01    0.362E-02
RMM:   2    -0.118087024558E+04   -0.90359E-05   -0.26715E-04  1064   0.257E-02
  15 F= -.11880960E+04 E0= -.11880960E+04  d E =-.270116E-02  mag=    -0.0000
       N       E                     dE             d eps       ncg     rms          rms(c)
DAV:   1    -0.118087157632E+04   -0.13398E-02   -0.10682E-01  1728   0.494E-01    0.118E-01
RMM:   2    -0.118087164073E+04   -0.64413E-04   -0.24550E-03  1582   0.670E-02    0.890E-02
RMM:   3    -0.118087160481E+04    0.35925E-04   -0.93139E-05  1030   0.132E-02
  16 F= -.11880974E+04 E0= -.11880974E+04  d E =-.134977E-02  mag=     0.0000
       N       E                     dE             d eps       ncg     rms          rms(c)
DAV:   1    -0.118087218194E+04   -0.54121E-03   -0.38872E-01  1584   0.942E-01    0.251E-01
RMM:   2    -0.118087242304E+04   -0.24110E-03   -0.86096E-03  1584   0.123E-01    0.206E-01
RMM:   3    -0.118087230137E+04    0.12167E-03   -0.34506E-04  1170   0.236E-02    0.180E-01
RMM:   4    -0.118087236944E+04   -0.68070E-04   -0.69184E-04  1480   0.313E-02
  17 F= -.11880981E+04 E0= -.11880981E+04  d E =-.210072E-02  mag=    -0.0000
       N       E                     dE             d eps       ncg     rms          rms(c)
DAV:   1    -0.118087304398E+04   -0.74261E-03   -0.49020E-02  1728   0.330E-01    0.886E-02
RMM:   2    -0.118087308686E+04   -0.42880E-04   -0.14860E-03  1370   0.488E-02    0.676E-02
RMM:   3    -0.118087307034E+04    0.16524E-04   -0.63993E-05  1014   0.113E-02
  18 F= -.11880988E+04 E0= -.11880988E+04  d E =-.714388E-03  mag=     0.0000
       N       E                     dE             d eps       ncg     rms          rms(c)
DAV:   1    -0.118087367620E+04   -0.58934E-03   -0.44328E-01  1584   0.987E-01    0.238E-01
RMM:   2    -0.118087428768E+04   -0.61148E-03   -0.13240E-02  1584   0.141E-01    0.177E-01
RMM:   3    -0.118087407661E+04    0.21107E-03   -0.45638E-04  1188   0.249E-02    0.152E-01
RMM:   4    -0.118087416545E+04   -0.88843E-04   -0.37989E-04  1200   0.236E-02
  19 F= -.11881000E+04 E0= -.11881000E+04  d E =-.184985E-02  mag=    -0.0000
       N       E                     dE             d eps       ncg     rms          rms(c)
DAV:   1    -0.118087498491E+04   -0.90829E-03   -0.26213E-02  1764   0.271E-01    0.651E-02
RMM:   2    -0.118087503977E+04   -0.54860E-04   -0.10088E-03  1224   0.426E-02    0.581E-02
RMM:   3    -0.118087502770E+04    0.12069E-04   -0.45206E-05   974   0.104E-02
  20 F= -.11881009E+04 E0= -.11881009E+04  d E =-.884800E-03  mag=    -0.0000
       N       E                     dE             d eps       ncg     rms          rms(c)
DAV:   1    -0.118087555728E+04   -0.51752E-03   -0.23468E-01  1584   0.807E-01    0.161E-01
RMM:   2    -0.118087625014E+04   -0.69286E-03   -0.91952E-03  1584   0.124E-01    0.147E-01
RMM:   3    -0.118087612007E+04    0.13007E-03   -0.28892E-04  1110   0.207E-02    0.133E-01
RMM:   4    -0.118087615412E+04   -0.34057E-04   -0.47962E-04  1366   0.257E-02
  21 F= -.11881020E+04 E0= -.11881020E+04  d E =-.207876E-02  mag=    -0.0000
       N       E                     dE             d eps       ncg     rms          rms(c)
DAV:   1    -0.118087690902E+04   -0.78896E-03   -0.52981E-02  1656   0.318E-01    0.109E-01
RMM:   2    -0.118087691064E+04   -0.16184E-05   -0.12889E-03  1382   0.449E-02    0.868E-02
RMM:   3    -0.118087689366E+04    0.16985E-04   -0.72009E-05  1006   0.113E-02
  22 F= -.11881028E+04 E0= -.11881028E+04  d E =-.721086E-03  mag=     0.0000
       N       E                     dE             d eps       ncg     rms          rms(c)
DAV:   1    -0.118087739623E+04   -0.48558E-03   -0.22431E-01  1584   0.653E-01    0.234E-01
RMM:   2    -0.118087753461E+04   -0.13839E-03   -0.53373E-03  1584   0.901E-02    0.194E-01
RMM:   3    -0.118087744748E+04    0.87134E-04   -0.20156E-04  1074   0.174E-02
  23 F= -.11881033E+04 E0= -.11881033E+04  d E =-.123716E-02  mag=    -0.0000
       N       E                     dE             d eps       ncg     rms          rms(c)
DAV:   1    -0.118087828192E+04   -0.74731E-03   -0.65146E-02  1584   0.357E-01    0.160E-01
RMM:   2    -0.118087830530E+04   -0.23382E-04   -0.15948E-03  1480   0.517E-02    0.145E-01
RMM:   3    -0.118087828430E+04    0.21001E-04   -0.59772E-05  1007   0.109E-02
  24 F= -.11881041E+04 E0= -.11881041E+04  d E =-.775658E-03  mag=     0.0000
       N       E                     dE             d eps       ncg     rms          rms(c)
DAV:   1    -0.118087902923E+04   -0.72393E-03   -0.44890E-01  1584   0.929E-01    0.323E-01
RMM:   2    -0.118087946593E+04   -0.43670E-03   -0.10773E-02  1584   0.131E-01    0.282E-01
RMM:   3    -0.118087929427E+04    0.17166E-03   -0.43982E-04  1190   0.252E-02    0.240E-01
RMM:   4    -0.118087943258E+04   -0.13831E-03   -0.88345E-04  1516   0.338E-02    0.668E-02
RMM:   5    -0.118087943985E+04   -0.72740E-05   -0.73697E-05  1030   0.112E-02
  25 F= -.11881051E+04 E0= -.11881051E+04  d E =-.177572E-02  mag=     0.0000
       N       E                     dE             d eps       ncg     rms          rms(c)
DAV:   1    -0.118088001200E+04   -0.57942E-03   -0.34281E-02  1800   0.267E-01    0.624E-02
RMM:   2    -0.118088004576E+04   -0.33761E-04   -0.88402E-04  1305   0.401E-02
  26 F= -.11881057E+04 E0= -.11881057E+04  d E =-.634767E-03  mag=    -0.0000
       N       E                     dE             d eps       ncg     rms          rms(c)
DAV:   1    -0.118088127683E+04   -0.12648E-02   -0.30650E-01  1728   0.798E-01    0.215E-01
RMM:   2    -0.118088166075E+04   -0.38393E-03   -0.81534E-03  1584   0.117E-01    0.180E-01
RMM:   3    -0.118088152322E+04    0.13753E-03   -0.31692E-04  1146   0.226E-02    0.150E-01
RMM:   4    -0.118088169085E+04   -0.16763E-03   -0.76172E-04  1434   0.318E-02    0.371E-02
RMM:   5    -0.118088168226E+04    0.85839E-05   -0.32643E-05  1002   0.869E-03
  27 F= -.11881074E+04 E0= -.11881074E+04  d E =-.235806E-02  mag=     0.0000
       N       E                     dE             d eps       ncg     rms          rms(c)
DAV:   1    -0.118088220340E+04   -0.51255E-03   -0.24259E-02  1800   0.250E-01    0.854E-02
RMM:   2    -0.118088228413E+04   -0.80727E-04   -0.10476E-03  1206   0.415E-02    0.793E-02
RMM:   3    -0.118088226716E+04    0.16967E-04   -0.38494E-05   958   0.966E-03
  28 F= -.11881081E+04 E0= -.11881081E+04  d E =-.711257E-03  mag=     0.0000
       N       E                     dE             d eps       ncg     rms          rms(c)
DAV:   1    -0.118088207283E+04    0.21130E-03   -0.21490E-01  1584   0.744E-01    0.263E-01
RMM:   2    -0.118088282929E+04   -0.75646E-03   -0.91904E-03  1584   0.119E-01    0.246E-01
RMM:   3    -0.118088265694E+04    0.17235E-03   -0.25919E-04  1082   0.191E-02    0.204E-01
RMM:   4    -0.118088269130E+04   -0.34360E-04   -0.73024E-04  1560   0.310E-02
  29 F= -.11881089E+04 E0= -.11881089E+04  d E =-.151528E-02  mag=     0.0000
       N       E                     dE             d eps       ncg     rms          rms(c)
DAV:   1    -0.118088301889E+04   -0.36195E-03   -0.20006E-02  1800   0.227E-01    0.741E-02
RMM:   2    -0.118088303905E+04   -0.20159E-04   -0.56996E-04  1226   0.346E-02
  30 F= -.11881094E+04 E0= -.11881094E+04  d E =-.419878E-03  mag=     0.0000
       N       E                     dE             d eps       ncg     rms          rms(c)
DAV:   1    -0.118088326794E+04   -0.24905E-03   -0.13515E-01  1728   0.587E-01    0.225E-01
RMM:   2    -0.118088342380E+04   -0.15585E-03   -0.37333E-03  1584   0.867E-02    0.208E-01
RMM:   3    -0.118088331697E+04    0.10683E-03   -0.18843E-04  1068   0.184E-02    0.161E-01
RMM:   4    -0.118088338408E+04   -0.67114E-04   -0.48455E-04  1412   0.253E-02
  31 F= -.11881099E+04 E0= -.11881099E+04  d E =-.952998E-03  mag=    -0.0000
