       N       E                     dE             d eps       ncg     rms          rms(c)
DAV:   1     0.455936380508E+04    0.45594E+04   -0.17508E+05  1888   0.929E+02
DAV:   2    -0.109635404851E+03   -0.46690E+04   -0.42421E+04  2464   0.208E+02
DAV:   3    -0.118693367679E+04   -0.10773E+04   -0.10687E+04  2016   0.108E+02
DAV:   4    -0.123092327137E+04   -0.43990E+02   -0.43751E+02  1984   0.289E+01
DAV:   5    -0.123207864371E+04   -0.11554E+01   -0.11532E+01  2368   0.439E+00    0.708E+01
RMM:   6    -0.121324135115E+04    0.18837E+02   -0.21441E+01  1599   0.531E+00    0.506E+01
RMM:   7    -0.120022086426E+04    0.13020E+02   -0.92312E+00  1537   0.403E+00    0.417E+01
RMM:   8    -0.117300986216E+04    0.27211E+02   -0.36441E+01  1595   0.754E+00    0.263E+01
RMM:   9    -0.116329563366E+04    0.97142E+01   -0.22016E+01  1536   0.623E+00    0.184E+01
RMM:  10    -0.116343574858E+04   -0.14011E+00   -0.15028E+01  1549   0.517E+00    0.872E+00
RMM:  11    -0.116378550741E+04   -0.34976E+00   -0.21859E+00  1611   0.238E+00    0.684E+00
RMM:  12    -0.116327810531E+04    0.50740E+00   -0.10532E+00  1537   0.144E+00    0.235E+00
RMM:  13    -0.116318811472E+04    0.89991E-01   -0.53181E-01  1536   0.954E-01    0.104E+00
RMM:  14    -0.116319927447E+04   -0.11160E-01   -0.71436E-02  1591   0.409E-01    0.730E-01
RMM:  15    -0.116319984445E+04   -0.56999E-03   -0.17491E-02  1781   0.191E-01    0.704E-01
RMM:  16    -0.116319964695E+04    0.19751E-03   -0.35613E-03  1831   0.737E-02    0.741E-01
RMM:  17    -0.116319867832E+04    0.96863E-03   -0.42775E-03  1541   0.837E-02    0.839E-01
RMM:  18    -0.116319892433E+04   -0.24601E-03   -0.17233E-03  1592   0.513E-02    0.746E-01
RMM:  19    -0.116320089269E+04   -0.19684E-02   -0.10767E-02  1689   0.125E-01    0.518E-01
RMM:  20    -0.116320039227E+04    0.50043E-03   -0.55785E-03  1597   0.901E-02    0.133E-01
RMM:  21    -0.116320068663E+04   -0.29437E-03   -0.15356E-03  1598   0.505E-02    0.130E-01
RMM:  22    -0.116320071535E+04   -0.28722E-04   -0.26891E-04  1771   0.232E-02    0.975E-02
RMM:  23    -0.116320075230E+04   -0.36942E-04   -0.62908E-05  1627   0.106E-02    0.696E-02
RMM:  24    -0.116320082650E+04   -0.74199E-04   -0.95190E-05  1584   0.120E-02    0.379E-02
RMM:  25    -0.116320085549E+04   -0.28999E-04   -0.58824E-05  1591   0.927E-03    0.181E-02
RMM:  26    -0.116320085627E+04   -0.77541E-06   -0.14042E-05  1490   0.417E-03    0.157E-02
RMM:  27    -0.116320085637E+04   -0.96792E-07   -0.48974E-06  1231   0.241E-03
   1 F= -.11632009E+04 E0= -.11632009E+04  d E =-.116320E+04  mag=     3.0009
       N       E                     dE             d eps       ncg     rms          rms(c)
DAV:   1    -0.116315556483E+04    0.45291E-01   -0.11038E+01  1728   0.536E+00    0.932E-01
RMM:   2    -0.116318056828E+04   -0.25003E-01   -0.29168E-01  1546   0.865E-01    0.104E+00
RMM:   3    -0.116318784944E+04   -0.72812E-02   -0.77312E-02  1727   0.348E-01    0.962E-01
RMM:   4    -0.116318736114E+04    0.48830E-03   -0.14141E-02  1993   0.143E-01    0.950E-01
RMM:   5    -0.116318366676E+04    0.36944E-02   -0.39380E-03  1557   0.835E-02    0.798E-01
RMM:   6    -0.116318135227E+04    0.23145E-02   -0.31828E-02  1571   0.209E-01    0.572E-01
RMM:   7    -0.116318063915E+04    0.71313E-03   -0.43498E-03  1611   0.952E-02    0.464E-01
RMM:   8    -0.116318071078E+04   -0.71634E-04   -0.11297E-03  1922   0.418E-02    0.429E-01
RMM:   9    -0.116318025563E+04    0.45515E-03   -0.10587E-03  1560   0.392E-02    0.315E-01
RMM:  10    -0.116318037220E+04   -0.11657E-03   -0.61333E-04  1613   0.304E-02    0.207E-01
RMM:  11    -0.116318034313E+04    0.29064E-04   -0.18059E-04  1797   0.170E-02    0.173E-01
RMM:  12    -0.116318028814E+04    0.54996E-04   -0.10992E-04  1583   0.124E-02    0.115E-01
RMM:  13    -0.116318027570E+04    0.12435E-04   -0.12223E-04  1602   0.127E-02    0.469E-02
RMM:  14    -0.116318027916E+04   -0.34542E-05   -0.26605E-05  1656   0.648E-03    0.236E-02
RMM:  15    -0.116318028087E+04   -0.17151E-05   -0.98598E-06  1510   0.357E-03    0.159E-02
RMM:  16    -0.116318028175E+04   -0.87776E-06   -0.23266E-06  1081   0.202E-03
   2 F= -.11631803E+04 E0= -.11631803E+04  d E =0.205746E-01  mag=     3.0000
       N       E                     dE             d eps       ncg     rms          rms(c)
DAV:   1    -0.116320797573E+04   -0.27695E-01   -0.40616E+00  1696   0.326E+00    0.597E-01
RMM:   2    -0.116321620558E+04   -0.82298E-02   -0.98830E-02  1545   0.520E-01    0.632E-01
RMM:   3    -0.116321837502E+04   -0.21694E-02   -0.25115E-02  1656   0.206E-01    0.567E-01
RMM:   4    -0.116321803306E+04    0.34196E-03   -0.42507E-03  1889   0.846E-02    0.548E-01
RMM:   5    -0.116321654681E+04    0.14863E-02   -0.22143E-03  1543   0.626E-02    0.401E-01
RMM:   6    -0.116321597180E+04    0.57501E-03   -0.78783E-03  1610   0.103E-01    0.267E-01
RMM:   7    -0.116321581357E+04    0.15823E-03   -0.90624E-04  1617   0.439E-02    0.218E-01
RMM:   8    -0.116321583368E+04   -0.20106E-04   -0.29792E-04  1845   0.207E-02    0.185E-01
RMM:   9    -0.116321580004E+04    0.33637E-04   -0.28834E-04  1574   0.205E-02    0.111E-01
RMM:  10    -0.116321582665E+04   -0.26612E-04   -0.87049E-05  1673   0.122E-02    0.788E-02
RMM:  11    -0.116321582189E+04    0.47604E-05   -0.32267E-05  1662   0.695E-03    0.610E-02
RMM:  12    -0.116321581434E+04    0.75489E-05   -0.32111E-05  1556   0.657E-03    0.320E-02
RMM:  13    -0.116321581535E+04   -0.10057E-05   -0.18807E-05  1542   0.494E-03    0.128E-02
RMM:  14    -0.116321581656E+04   -0.12086E-05   -0.70308E-06  1439   0.315E-03    0.829E-03
RMM:  15    -0.116321581629E+04    0.26836E-06   -0.22242E-06  1091   0.185E-03
   3 F= -.11632158E+04 E0= -.11632158E+04  d E =-.149599E-01  mag=     3.0000
       N       E                     dE             d eps       ncg     rms          rms(c)
DAV:   1    -0.116321718556E+04   -0.13690E-02   -0.29181E+00  1600   0.278E+00    0.455E-01
RMM:   2    -0.116322059480E+04   -0.34092E-02   -0.45206E-02  1539   0.381E-01    0.468E-01
RMM:   3    -0.116322138321E+04   -0.78841E-03   -0.10932E-02  1628   0.157E-01    0.413E-01
RMM:   4    -0.116322081442E+04    0.56878E-03   -0.20264E-03  1784   0.678E-02    0.382E-01
RMM:   5    -0.116321972499E+04    0.10894E-02   -0.44726E-03  1578   0.769E-02    0.228E-01
RMM:   6    -0.116321976976E+04   -0.44772E-04   -0.22144E-03  1570   0.584E-02    0.178E-01
RMM:   7    -0.116321953459E+04    0.23517E-03   -0.25419E-04  1604   0.254E-02    0.139E-01
RMM:   8    -0.116321944999E+04    0.84604E-04   -0.51951E-04  1577   0.252E-02    0.759E-02
RMM:   9    -0.116321944414E+04    0.58456E-05   -0.12984E-04  1667   0.152E-02    0.567E-02
RMM:  10    -0.116321943699E+04    0.71537E-05   -0.79888E-05  1622   0.109E-02    0.373E-02
RMM:  11    -0.116321943841E+04   -0.14218E-05   -0.12639E-05  1517   0.533E-03    0.300E-02
RMM:  12    -0.116321943559E+04    0.28228E-05   -0.18144E-05  1544   0.508E-03    0.154E-02
RMM:  13    -0.116321943310E+04    0.24839E-05   -0.69413E-06  1415   0.323E-03    0.107E-02
RMM:  14    -0.116321943297E+04    0.13588E-06   -0.43273E-06  1259   0.230E-03
   4 F= -.11632194E+04 E0= -.11632194E+04  d E =-.361668E-02  mag=     3.0000
       N       E                     dE             d eps       ncg     rms          rms(c)
DAV:   1    -0.116322195109E+04   -0.25180E-02   -0.46585E-01  1632   0.111E+00    0.186E-01
RMM:   2    -0.116322249505E+04   -0.54396E-03   -0.73109E-03  1539   0.153E-01    0.186E-01
RMM:   3    -0.116322261067E+04   -0.11562E-03   -0.17731E-03  1628   0.632E-02    0.161E-01
RMM:   4    -0.116322251670E+04    0.93969E-04   -0.33366E-04  1764   0.275E-02    0.146E-01
RMM:   5    -0.116322236335E+04    0.15335E-03   -0.70126E-04  1580   0.307E-02    0.811E-02
RMM:   6    -0.116322237578E+04   -0.12433E-04   -0.29845E-04  1574   0.219E-02    0.620E-02
RMM:   7    -0.116322234545E+04    0.30331E-04   -0.38263E-05  1590   0.970E-03    0.468E-02
RMM:   8    -0.116322234080E+04    0.46504E-05   -0.68475E-05  1577   0.927E-03    0.243E-02
RMM:   9    -0.116322234006E+04    0.74070E-06   -0.16384E-05  1601   0.543E-03    0.181E-02
RMM:  10    -0.116322233943E+04    0.62976E-06   -0.90922E-06  1508   0.377E-03
   5 F= -.11632223E+04 E0= -.11632223E+04  d E =-.652314E-02  mag=     3.0000
       N       E                     dE             d eps       ncg     rms          rms(c)
DAV:   1    -0.116322285012E+04   -0.51006E-03   -0.15809E+00  1760   0.233E+00    0.346E-01
RMM:   2    -0.116322591038E+04   -0.30603E-02   -0.37346E-02  1548   0.306E-01    0.287E-01
RMM:   3    -0.116322606261E+04   -0.15222E-03   -0.80561E-03  1600   0.125E-01    0.223E-01
RMM:   4    -0.116322555617E+04    0.50644E-03   -0.17875E-03  1642   0.615E-02    0.154E-01
RMM:   5    -0.116322533680E+04    0.21937E-03   -0.11382E-03  1567   0.438E-02    0.912E-02
RMM:   6    -0.116322537686E+04   -0.40054E-04   -0.51709E-04  1558   0.327E-02    0.441E-02
RMM:   7    -0.116322537572E+04    0.11374E-05   -0.93766E-05  1712   0.152E-02    0.312E-02
RMM:   8    -0.116322536588E+04    0.98407E-05   -0.53574E-05  1549   0.922E-03    0.166E-02
RMM:   9    -0.116322536673E+04   -0.84852E-06   -0.14512E-05  1659   0.513E-03    0.115E-02
RMM:  10    -0.116322536605E+04    0.67648E-06   -0.41204E-06  1265   0.271E-03
   6 F= -.11632254E+04 E0= -.11632254E+04  d E =-.302662E-02  mag=     3.0000
       N       E                     dE             d eps       ncg     rms          rms(c)
DAV:   1    -0.116322573370E+04   -0.36697E-03   -0.13233E-01  1792   0.674E-01    0.101E-01
RMM:   2    -0.116322598809E+04   -0.25439E-03   -0.32018E-03  1549   0.894E-02    0.835E-02
RMM:   3    -0.116322600286E+04   -0.14769E-04   -0.69343E-04  1601   0.365E-02    0.648E-02
RMM:   4    -0.116322596351E+04    0.39345E-04   -0.14560E-04  1639   0.178E-02    0.449E-02
RMM:   5    -0.116322594733E+04    0.16182E-04   -0.10026E-04  1564   0.130E-02    0.262E-02
RMM:   6    -0.116322595441E+04   -0.70775E-05   -0.44169E-05  1554   0.956E-03    0.128E-02
RMM:   7    -0.116322595479E+04   -0.37668E-06   -0.79843E-06  1530   0.446E-03
   7 F= -.11632260E+04 E0= -.11632260E+04  d E =-.361536E-02  mag=     3.0000
       N       E                     dE             d eps       ncg     rms          rms(c)
DAV:   1    -0.116322239312E+04    0.35613E-02   -0.14224E+00  1728   0.236E+00    0.373E-01
RMM:   2    -0.116322750835E+04   -0.51152E-02   -0.54229E-02  1554   0.315E-01    0.276E-01
RMM:   3    -0.116322854758E+04   -0.10392E-02   -0.12474E-02  1609   0.126E-01    0.190E-01
RMM:   4    -0.116322845047E+04    0.97111E-04   -0.15203E-03  1745   0.532E-02    0.141E-01
RMM:   5    -0.116322834680E+04    0.10367E-03   -0.63106E-04  1584   0.326E-02    0.873E-02
RMM:   6    -0.116322839380E+04   -0.47003E-04   -0.39482E-04  1553   0.277E-02    0.388E-02
RMM:   7    -0.116322841431E+04   -0.20506E-04   -0.73410E-05  1744   0.132E-02    0.256E-02
RMM:   8    -0.116322840895E+04    0.53530E-05   -0.23975E-05  1559   0.661E-03    0.155E-02
RMM:   9    -0.116322840901E+04   -0.57968E-07   -0.14939E-05  1516   0.468E-03    0.920E-03
RMM:  10    -0.116322840990E+04   -0.88400E-06   -0.41261E-06  1175   0.269E-03
   8 F= -.11632284E+04 E0= -.11632284E+04  d E =-.245511E-02  mag=     3.0000
       N       E                     dE             d eps       ncg     rms          rms(c)
DAV:   1    -0.116322831766E+04    0.91353E-04   -0.66988E-02  1824   0.512E-01    0.809E-02
RMM:   2    -0.116322855037E+04   -0.23271E-03   -0.25476E-03  1555   0.685E-02    0.602E-02
RMM:   3    -0.116322859935E+04   -0.48977E-04   -0.58456E-04  1607   0.276E-02    0.412E-02
RMM:   4    -0.116322859530E+04    0.40487E-05   -0.69880E-05  1721   0.116E-02    0.306E-02
RMM:   5    -0.116322859242E+04    0.28777E-05   -0.31940E-05  1560   0.727E-03    0.186E-02
RMM:   6    -0.116322859673E+04   -0.43091E-05   -0.19087E-05  1546   0.609E-03    0.826E-03
RMM:   7    -0.116322859802E+04   -0.12889E-05   -0.35924E-06  1200   0.294E-03    0.538E-03
RMM:   8    -0.116322859785E+04    0.17170E-06   -0.92817E-07  1028   0.149E-03
   9 F= -.11632286E+04 E0= -.11632286E+04  d E =-.264306E-02  mag=     3.0000
       N       E                     dE             d eps       ncg     rms          rms(c)
DAV:   1    -0.116322555201E+04    0.30460E-02   -0.96945E-01  1728   0.196E+00    0.306E-01
RMM:   2    -0.116322929736E+04   -0.37453E-02   -0.38698E-02  1559   0.259E-01    0.223E-01
RMM:   3    -0.116323020411E+04   -0.90675E-03   -0.88731E-03  1612   0.103E-01    0.148E-01
RMM:   4    -0.116323022056E+04   -0.16445E-04   -0.94142E-04  1767   0.418E-02    0.112E-01
RMM:   5    -0.116323021981E+04    0.74842E-06   -0.34224E-04  1605   0.240E-02    0.698E-02
RMM:   6    -0.116323027299E+04   -0.53180E-04   -0.18541E-04  1574   0.194E-02    0.312E-02
RMM:   7    -0.116323029269E+04   -0.19697E-04   -0.39784E-05  1789   0.961E-03    0.186E-02
RMM:   8    -0.116323028996E+04    0.27237E-05   -0.14619E-05  1514   0.483E-03    0.116E-02
RMM:   9    -0.116323029077E+04   -0.80769E-06   -0.82034E-06  1466   0.337E-03
  10 F= -.11632303E+04 E0= -.11632303E+04  d E =-.169292E-02  mag=     3.0000
       N       E                     dE             d eps       ncg     rms          rms(c)
DAV:   1    -0.116323023532E+04    0.54641E-04   -0.26233E-02  1856   0.322E-01    0.503E-02
RMM:   2    -0.116323033203E+04   -0.96705E-04   -0.10438E-03  1559   0.425E-02    0.372E-02
RMM:   3    -0.116323035600E+04   -0.23972E-04   -0.23662E-04  1610   0.169E-02    0.249E-02
RMM:   4    -0.116323035623E+04   -0.23472E-06   -0.24756E-05  1683   0.678E-03    0.188E-02
RMM:   5    -0.116323035738E+04   -0.11479E-05   -0.10455E-05  1489   0.416E-03    0.114E-02
RMM:   6    -0.116323035951E+04   -0.21274E-05   -0.52124E-06  1451   0.327E-03    0.507E-03
RMM:   7    -0.116323035998E+04   -0.46625E-06   -0.10059E-06  1022   0.161E-03
  11 F= -.11632304E+04 E0= -.11632304E+04  d E =-.176213E-02  mag=     3.0000
       N       E                     dE             d eps       ncg     rms          rms(c)
DAV:   1    -0.116322941930E+04    0.94021E-03   -0.69103E-01  1696   0.158E+00    0.222E-01
RMM:   2    -0.116323118998E+04   -0.17707E-02   -0.19905E-02  1554   0.207E-01    0.176E-01
RMM:   3    -0.116323149343E+04   -0.30345E-03   -0.44558E-03  1601   0.849E-02    0.129E-01
RMM:   4    -0.116323143707E+04    0.56368E-04   -0.65321E-04  1682   0.375E-02    0.919E-02
RMM:   5    -0.116323142077E+04    0.16301E-04   -0.35063E-04  1579   0.247E-02    0.526E-02
RMM:   6    -0.116323146494E+04   -0.44172E-04   -0.13924E-04  1579   0.174E-02    0.234E-02
RMM:   7    -0.116323147143E+04   -0.64940E-05   -0.29344E-05  1766   0.820E-03    0.163E-02
RMM:   8    -0.116323146829E+04    0.31443E-05   -0.12972E-05  1508   0.450E-03    0.989E-03
RMM:   9    -0.116323146889E+04   -0.60089E-06   -0.57368E-06  1437   0.292E-03
  12 F= -.11632315E+04 E0= -.11632315E+04  d E =-.110891E-02  mag=     3.0000
       N       E                     dE             d eps       ncg     rms          rms(c)
DAV:   1    -0.116323145935E+04    0.89332E-05   -0.23463E-02  1824   0.291E-01    0.412E-02
RMM:   2    -0.116323151649E+04   -0.57132E-04   -0.67230E-04  1554   0.380E-02    0.331E-02
RMM:   3    -0.116323152566E+04   -0.91739E-05   -0.14954E-04  1603   0.156E-02    0.242E-02
RMM:   4    -0.116323152330E+04    0.23584E-05   -0.22497E-05  1624   0.696E-03    0.171E-02
RMM:   5    -0.116323152244E+04    0.85904E-06   -0.11961E-05  1498   0.463E-03    0.969E-03
RMM:   6    -0.116323152365E+04   -0.12067E-05   -0.56659E-06  1491   0.346E-03    0.420E-03
RMM:   7    -0.116323152368E+04   -0.32043E-07   -0.91870E-07  1024   0.158E-03
  13 F= -.11632315E+04 E0= -.11632315E+04  d E =-.116370E-02  mag=     3.0000
