       N       E                     dE             d eps       ncg     rms          rms(c)
DAV:   1     0.505153616698E+04    0.50515E+04   -0.17874E+05  1872   0.936E+02
DAV:   2    -0.198468828328E+02   -0.50714E+04   -0.46564E+04  2520   0.211E+02
DAV:   3    -0.120382860372E+04   -0.11840E+04   -0.11785E+04  2160   0.113E+02
DAV:   4    -0.125219369391E+04   -0.48365E+02   -0.47975E+02  2052   0.294E+01
DAV:   5    -0.125341265813E+04   -0.12190E+01   -0.12139E+01  2268   0.431E+00    0.748E+01
RMM:   6    -0.123226701427E+04    0.21146E+02   -0.21097E+01  1784   0.450E+00    0.573E+01
RMM:   7    -0.120859178475E+04    0.23675E+02   -0.24911E+01  1602   0.567E+00    0.407E+01
RMM:   8    -0.118521467754E+04    0.23377E+02   -0.39402E+01  1588   0.717E+00    0.255E+01
RMM:   9    -0.118235409522E+04    0.28606E+01   -0.18129E+01  1597   0.482E+00    0.148E+01
RMM:  10    -0.118387933007E+04   -0.15252E+01   -0.77719E+00  1631   0.317E+00    0.821E+00
RMM:  11    -0.118290417617E+04    0.97515E+00   -0.14013E+00  1637   0.132E+00    0.459E+00
RMM:  12    -0.118263596469E+04    0.26821E+00   -0.82555E-01  1627   0.997E-01    0.198E+00
RMM:  13    -0.118256278464E+04    0.73180E-01   -0.18539E-01  1710   0.461E-01    0.739E-01
RMM:  14    -0.118255884882E+04    0.39358E-02   -0.52402E-02  1645   0.272E-01    0.417E-01
RMM:  15    -0.118255581023E+04    0.30386E-02   -0.11722E-02  1705   0.126E-01    0.257E-01
RMM:  16    -0.118255568638E+04    0.12385E-03   -0.31136E-03  1695   0.593E-02    0.141E-01
RMM:  17    -0.118255586654E+04   -0.18017E-03   -0.11077E-03  1515   0.362E-02    0.958E-02
RMM:  18    -0.118255588644E+04   -0.19892E-04   -0.27671E-04  1151   0.213E-02
   1 F= -.11899621E+04 E0= -.11899621E+04  d E =-.118996E+04  mag=    -0.0052
       N       E                     dE             d eps       ncg     rms          rms(c)
DAV:   1    -0.118254437208E+04    0.11494E-01   -0.96376E-01  1656   0.151E+00    0.653E-01
RMM:   2    -0.118255257127E+04   -0.81992E-02   -0.10072E-01  1926   0.365E-01    0.606E-01
RMM:   3    -0.118255280219E+04   -0.23092E-03   -0.52899E-03  1550   0.770E-02    0.621E-01
RMM:   4    -0.118255290128E+04   -0.99088E-04   -0.72270E-04  1217   0.215E-02
   2 F= -.11899603E+04 E0= -.11899603E+04  d E =0.171998E-02  mag=     0.0020
       N       E                     dE             d eps       ncg     rms          rms(c)
DAV:   1    -0.118255353108E+04   -0.72889E-03   -0.36824E-01  1728   0.935E-01    0.286E-01
RMM:   2    -0.118255640291E+04   -0.28718E-02   -0.36204E-02  1916   0.225E-01    0.187E-01
RMM:   3    -0.118255645669E+04   -0.53783E-04   -0.18056E-03  1304   0.469E-02    0.205E-01
RMM:   4    -0.118255647052E+04   -0.13828E-04   -0.24141E-04  1064   0.147E-02
   3 F= -.11899631E+04 E0= -.11899631E+04  d E =-.108228E-02  mag=     0.0009
       N       E                     dE             d eps       ncg     rms          rms(c)
DAV:   1    -0.118255193766E+04    0.45190E-02   -0.44341E-01  1584   0.111E+00    0.528E-01
RMM:   2    -0.118255637199E+04   -0.44343E-02   -0.55865E-02  1922   0.272E-01    0.511E-01
RMM:   3    -0.118255628446E+04    0.87524E-04   -0.31408E-03  1441   0.581E-02    0.490E-01
RMM:   4    -0.118255561182E+04    0.67264E-03   -0.12840E-03  1594   0.381E-02    0.354E-01
RMM:   5    -0.118255544067E+04    0.17115E-03   -0.34482E-03  1588   0.672E-02    0.807E-02
RMM:   6    -0.118255538233E+04    0.58344E-04   -0.11203E-04  1060   0.184E-02
   4 F= -.11899613E+04 E0= -.11899613E+04  d E =0.187553E-02  mag=     0.0000
       N       E                     dE             d eps       ncg     rms          rms(c)
DAV:   1    -0.118255520608E+04    0.23460E-03   -0.19533E-01  1728   0.735E-01    0.257E-01
RMM:   2    -0.118255717586E+04   -0.19698E-02   -0.24376E-02  1922   0.180E-01    0.232E-01
RMM:   3    -0.118255714012E+04    0.35744E-04   -0.13269E-03  1250   0.379E-02    0.224E-01
RMM:   4    -0.118255697004E+04    0.17008E-03   -0.31287E-04  1086   0.197E-02    0.186E-01
RMM:   5    -0.118255687070E+04    0.99336E-04   -0.16197E-03  1588   0.447E-02    0.487E-02
RMM:   6    -0.118255684647E+04    0.24229E-04   -0.40997E-05  1019   0.115E-02
   5 F= -.11899632E+04 E0= -.11899632E+04  d E =-.112034E-03  mag=    -0.0000
