       N       E                     dE             d eps       ncg     rms          rms(c)
DAV:   1     0.473092106745E+04    0.47309E+04   -0.17345E+05  1872   0.913E+02
DAV:   2    -0.977135167479E+02   -0.48286E+04   -0.44070E+04  2520   0.208E+02
DAV:   3    -0.119341058108E+04   -0.10957E+04   -0.10905E+04  2160   0.108E+02
DAV:   4    -0.123599547676E+04   -0.42585E+02   -0.42373E+02  2052   0.277E+01
DAV:   5    -0.123708272976E+04   -0.10873E+01   -0.10854E+01  2412   0.410E+00    0.654E+01
RMM:   6    -0.121909464604E+04    0.17988E+02   -0.22886E+01  1584   0.468E+00    0.524E+01
RMM:   7    -0.120100415309E+04    0.18090E+02   -0.12245E+01  1584   0.394E+00    0.403E+01
RMM:   8    -0.117688986067E+04    0.24114E+02   -0.30467E+01  1584   0.631E+00    0.268E+01
RMM:   9    -0.116785569657E+04    0.90342E+01   -0.25333E+01  1584   0.574E+00    0.169E+01
RMM:  10    -0.116857300661E+04   -0.71731E+00   -0.72043E+00  1586   0.312E+00    0.966E+00
RMM:  11    -0.116900073533E+04   -0.42773E+00   -0.97050E-01  1604   0.120E+00    0.681E+00
RMM:  12    -0.116831033560E+04    0.69040E+00   -0.28491E+00  1584   0.185E+00    0.371E+00
RMM:  13    -0.116826653172E+04    0.43804E-01   -0.93919E-02  1602   0.343E-01    0.152E+00
RMM:  14    -0.116827132132E+04   -0.47896E-02   -0.15475E-02  1598   0.141E-01    0.102E+00
RMM:  15    -0.116826939063E+04    0.19307E-02   -0.28298E-02  1585   0.185E-01    0.431E-01
RMM:  16    -0.116826890260E+04    0.48803E-03   -0.10937E-02  1586   0.122E-01    0.227E-01
RMM:  17    -0.116826866015E+04    0.24246E-03   -0.16366E-03  1589   0.463E-02    0.150E-01
RMM:  18    -0.116826871708E+04   -0.56937E-04   -0.10642E-03  1282   0.302E-02    0.698E-02
RMM:  19    -0.116826884355E+04   -0.12647E-03   -0.12026E-04  1050   0.127E-02    0.563E-02
RMM:  20    -0.116826885931E+04   -0.15756E-04   -0.10319E-04  1032   0.125E-02
   1 F= -.11756211E+04 E0= -.11756209E+04  d E =-.117562E+04  mag=     1.0000
       N       E                     dE             d eps       ncg     rms          rms(c)
DAV:   1    -0.116826562443E+04    0.32191E-02   -0.15715E+00  1656   0.177E+00    0.523E-01
RMM:   2    -0.116826818212E+04   -0.25577E-02   -0.33215E-02  1584   0.240E-01    0.448E-01
RMM:   3    -0.116826750616E+04    0.67596E-03   -0.24752E-03  1656   0.563E-02    0.363E-01
RMM:   4    -0.116826633501E+04    0.11711E-02   -0.46190E-03  1584   0.774E-02    0.137E-01
RMM:   5    -0.116826639055E+04   -0.55534E-04   -0.33356E-04  1201   0.233E-02
   2 F= -.11756196E+04 E0= -.11756191E+04  d E =0.148443E-02  mag=     0.9944
       N       E                     dE             d eps       ncg     rms          rms(c)
DAV:   1    -0.116827116944E+04   -0.48344E-02   -0.50646E-01  1692   0.100E+00    0.294E-01
RMM:   2    -0.116827174421E+04   -0.57477E-03   -0.89431E-03  1584   0.131E-01    0.247E-01
RMM:   3    -0.116827137512E+04    0.36909E-03   -0.72282E-04  1378   0.321E-02    0.190E-01
RMM:   4    -0.116827094901E+04    0.42610E-03   -0.19634E-03  1584   0.502E-02    0.692E-02
RMM:   5    -0.116827097507E+04   -0.26061E-04   -0.69471E-05  1021   0.120E-02
   3 F= -.11756237E+04 E0= -.11756233E+04  d E =-.254485E-02  mag=     0.9948
       N       E                     dE             d eps       ncg     rms          rms(c)
DAV:   1    -0.116827261519E+04   -0.16662E-02   -0.55588E-01  1692   0.110E+00    0.287E-01
RMM:   2    -0.116827300197E+04   -0.38678E-03   -0.10351E-02  1584   0.149E-01    0.223E-01
RMM:   3    -0.116827240844E+04    0.59354E-03   -0.81325E-04  1503   0.351E-02    0.169E-01
RMM:   4    -0.116827188464E+04    0.52380E-03   -0.11539E-03  1578   0.371E-02    0.926E-02
RMM:   5    -0.116827180968E+04    0.74955E-04   -0.54541E-04  1505   0.260E-02
   4 F= -.11756242E+04 E0= -.11756238E+04  d E =-.589725E-03  mag=     0.9944
       N       E                     dE             d eps       ncg     rms          rms(c)
DAV:   1    -0.116827243666E+04   -0.55202E-03   -0.89000E-02  1728   0.439E-01    0.110E-01
RMM:   2    -0.116827245283E+04   -0.16170E-04   -0.15564E-03  1565   0.576E-02    0.882E-02
RMM:   3    -0.116827233052E+04    0.12231E-03   -0.12857E-04  1029   0.149E-02    0.664E-02
RMM:   4    -0.116827221948E+04    0.11104E-03   -0.35282E-04  1239   0.211E-02    0.294E-02
RMM:   5    -0.116827221665E+04    0.28324E-05   -0.62974E-05   988   0.110E-02
   5 F= -.11756247E+04 E0= -.11756244E+04  d E =-.109371E-02  mag=     0.9948
       N       E                     dE             d eps       ncg     rms          rms(c)
DAV:   1    -0.116827232078E+04   -0.10129E-03   -0.39394E-01  1728   0.913E-01    0.172E-01
RMM:   2    -0.116827276547E+04   -0.44469E-03   -0.73653E-03  1584   0.123E-01    0.140E-01
RMM:   3    -0.116827257676E+04    0.18871E-03   -0.39348E-04  1210   0.265E-02    0.114E-01
RMM:   4    -0.116827235762E+04    0.21914E-03   -0.55798E-04  1460   0.272E-02    0.658E-02
RMM:   5    -0.116827233104E+04    0.26582E-04   -0.23582E-04  1109   0.187E-02
   6 F= -.11756251E+04 E0= -.11756247E+04  d E =-.320671E-03  mag=     0.9942
       N       E                     dE             d eps       ncg     rms          rms(c)
DAV:   1    -0.116827271907E+04   -0.36146E-03   -0.58728E-02  1728   0.352E-01    0.654E-02
RMM:   2    -0.116827276705E+04   -0.47975E-04   -0.10620E-03  1503   0.468E-02    0.548E-02
RMM:   3    -0.116827272192E+04    0.45131E-04   -0.58774E-05   981   0.111E-02
   7 F= -.11756254E+04 E0= -.11756250E+04  d E =-.632027E-03  mag=     0.9945
