       N       E                     dE             d eps       ncg     rms          rms(c)
DAV:   1     0.488966074491E+04    0.48897E+04   -0.18178E+05  1872   0.937E+02
DAV:   2    -0.754662180191E+02   -0.49651E+04   -0.45706E+04  2592   0.215E+02
DAV:   3    -0.120439031961E+04   -0.11289E+04   -0.11216E+04  2052   0.111E+02
DAV:   4    -0.125199373358E+04   -0.47603E+02   -0.47309E+02  2016   0.298E+01
DAV:   5    -0.125320067838E+04   -0.12069E+01   -0.12031E+01  2340   0.449E+00    0.997E+01
RMM:   6    -0.125380541288E+04   -0.60473E+00   -0.20822E+02  1941   0.194E+01    0.998E+01
RMM:   7    -0.123069220682E+04    0.23113E+02   -0.10731E+01  1598   0.514E+00    0.742E+01
RMM:   8    -0.120142270539E+04    0.29270E+02   -0.35050E+01  1591   0.757E+00    0.371E+01
RMM:   9    -0.119287436037E+04    0.85483E+01   -0.63013E+00  1589   0.341E+00    0.318E+01
RMM:  10    -0.118383374694E+04    0.90406E+01   -0.69810E+00  1584   0.350E+00    0.263E+01
RMM:  11    -0.117394136014E+04    0.98924E+01   -0.25732E+01  1584   0.590E+00    0.162E+01
RMM:  12    -0.117472261453E+04   -0.78125E+00   -0.91242E+00  1592   0.404E+00    0.918E+00
RMM:  13    -0.117483828389E+04   -0.11567E+00   -0.61106E-01  1724   0.114E+00    0.749E+00
RMM:  14    -0.117418478003E+04    0.65350E+00   -0.13327E+00  1592   0.147E+00    0.392E+00
RMM:  15    -0.117412154362E+04    0.63236E-01   -0.61066E-01  1587   0.810E-01    0.598E+00
RMM:  16    -0.117409299073E+04    0.28553E-01   -0.31342E-02  1757   0.260E-01    0.633E+00
RMM:  17    -0.117401652597E+04    0.76465E-01   -0.15621E-01  1584   0.474E-01    0.240E+00
RMM:  18    -0.117400874249E+04    0.77835E-02   -0.43972E-02  1603   0.224E-01    0.113E+00
RMM:  19    -0.117402008350E+04   -0.11341E-01   -0.17438E-02  1598   0.164E-01    0.620E-01
RMM:  20    -0.117401927718E+04    0.80632E-03   -0.67827E-03  1690   0.937E-02    0.368E-01
RMM:  21    -0.117401901898E+04    0.25820E-03   -0.86851E-04  1229   0.401E-02    0.388E-01
RMM:  22    -0.117401964057E+04   -0.62159E-03   -0.21480E-03  1524   0.480E-02    0.217E-01
RMM:  23    -0.117401975571E+04   -0.11514E-03   -0.28972E-04  1076   0.227E-02    0.127E-01
RMM:  24    -0.117401979116E+04   -0.35446E-04   -0.77829E-05  1021   0.150E-02
   1 F= -.11811600E+04 E0= -.11811530E+04  d E =-.118116E+04  mag=     0.9044
       N       E                     dE             d eps       ncg     rms          rms(c)
DAV:   1    -0.117388670967E+04    0.13305E+00   -0.86278E+00  1692   0.907E+00    0.146E+00
RMM:   2    -0.117404656371E+04   -0.15985E+00   -0.17073E+00  1766   0.134E+00    0.867E-01
RMM:   3    -0.117401100866E+04    0.35555E-01   -0.56062E-02  1823   0.277E-01    0.703E-01
RMM:   4    -0.117400809427E+04    0.29144E-02   -0.11825E-02  1609   0.104E-01    0.535E-01
RMM:   5    -0.117400723953E+04    0.85474E-03   -0.26146E-03  1573   0.618E-02    0.391E-01
RMM:   6    -0.117400779710E+04   -0.55758E-03   -0.90330E-03  1586   0.107E-01    0.145E-01
RMM:   7    -0.117400822476E+04   -0.42765E-03   -0.40959E-04  1149   0.361E-02    0.968E-02
RMM:   8    -0.117400826103E+04   -0.36275E-04   -0.10558E-04  1033   0.168E-02
   2 F= -.11811478E+04 E0= -.11811451E+04  d E =0.122180E-01  mag=     0.9756
       N       E                     dE             d eps       ncg     rms          rms(c)
DAV:   1    -0.117398968537E+04    0.18539E-01   -0.31982E+00  1692   0.551E+00    0.179E+00
RMM:   2    -0.117404556134E+04   -0.55876E-01   -0.66277E-01  1742   0.813E-01    0.882E-01
RMM:   3    -0.117402935095E+04    0.16210E-01   -0.20845E-02  1747   0.170E-01    0.556E-01
RMM:   4    -0.117402818733E+04    0.11636E-02   -0.56376E-03  1531   0.668E-02    0.374E-01
RMM:   5    -0.117402794516E+04    0.24217E-03   -0.12947E-03  1514   0.397E-02    0.455E-01
RMM:   6    -0.117402757393E+04    0.37123E-03   -0.30121E-03  1576   0.623E-02    0.289E-01
RMM:   7    -0.117402772689E+04   -0.15296E-03   -0.19987E-03  1303   0.441E-02    0.105E-01
RMM:   8    -0.117402782280E+04   -0.95912E-04   -0.98197E-05  1032   0.172E-02
   3 F= -.11811678E+04 E0= -.11811626E+04  d E =-.774802E-02  mag=     0.9422
       N       E                     dE             d eps       ncg     rms          rms(c)
DAV:   1    -0.117389458019E+04    0.13315E+00   -0.37332E+00  1764   0.888E+00    0.120E+00
RMM:   2    -0.117407770469E+04   -0.18312E+00   -0.18669E+00  1787   0.116E+00    0.481E-01
RMM:   3    -0.117402709895E+04    0.50606E-01   -0.54758E-02  1695   0.218E-01    0.377E-01
RMM:   4    -0.117402729746E+04   -0.19852E-03   -0.74415E-03  1334   0.575E-02    0.341E-01
RMM:   5    -0.117402705154E+04    0.24592E-03   -0.12343E-03  1489   0.431E-02    0.223E-01
RMM:   6    -0.117402741366E+04   -0.36212E-03   -0.17472E-03  1575   0.526E-02    0.840E-02
RMM:   7    -0.117402752415E+04   -0.11049E-03   -0.11344E-04  1039   0.173E-02    0.604E-02
RMM:   8    -0.117402757753E+04   -0.53381E-04   -0.53150E-05  1004   0.115E-02
   4 F= -.11811671E+04 E0= -.11811629E+04  d E =0.656011E-03  mag=     0.9538
       N       E                     dE             d eps       ncg     rms          rms(c)
DAV:   1    -0.117399341212E+04    0.34112E-01   -0.10695E+00  1836   0.470E+00    0.613E-01
RMM:   2    -0.117404462536E+04   -0.51213E-01   -0.52332E-01  1779   0.615E-01    0.240E-01
RMM:   3    -0.117403081027E+04    0.13815E-01   -0.15487E-02  1421   0.112E-01    0.203E-01
RMM:   4    -0.117403081209E+04   -0.18111E-05   -0.20282E-03  1158   0.308E-02    0.182E-01
RMM:   5    -0.117403076984E+04    0.42241E-04   -0.68634E-04  1317   0.330E-02
   5 F= -.11811705E+04 E0= -.11811658E+04  d E =-.275325E-02  mag=     0.9484
       N       E                     dE             d eps       ncg     rms          rms(c)
DAV:   1    -0.117386593002E+04    0.16488E+00   -0.36171E+00  2016   0.990E+00    0.125E+00
RMM:   2    -0.117410019053E+04   -0.23426E+00   -0.23698E+00  1795   0.122E+00    0.420E-01
RMM:   3    -0.117403406854E+04    0.66122E-01   -0.65736E-02  1571   0.225E-01    0.295E-01
RMM:   4    -0.117403471995E+04   -0.65142E-03   -0.98506E-03  1270   0.547E-02    0.295E-01
RMM:   5    -0.117403453191E+04    0.18804E-03   -0.36220E-04  1093   0.212E-02    0.253E-01
RMM:   6    -0.117403498644E+04   -0.45453E-03   -0.13355E-03  1450   0.442E-02    0.770E-02
RMM:   7    -0.117403511495E+04   -0.12851E-03   -0.17184E-04  1034   0.187E-02    0.501E-02
RMM:   8    -0.117403516762E+04   -0.52672E-04   -0.26796E-05   994   0.985E-03
   6 F= -.11811745E+04 E0= -.11811699E+04  d E =-.394923E-02  mag=     0.9494
       N       E                     dE             d eps       ncg     rms          rms(c)
DAV:   1    -0.117403484583E+04    0.26912E-03   -0.76928E-03  2016   0.460E-01    0.630E-02
RMM:   2    -0.117403532077E+04   -0.47494E-03   -0.49054E-03  1212   0.564E-02    0.238E-02
RMM:   3    -0.117403519107E+04    0.12969E-03   -0.14834E-04   836   0.114E-02    0.188E-02
RMM:   4    -0.117403519566E+04   -0.45864E-05   -0.19585E-05   524   0.446E-03
   7 F= -.11811745E+04 E0= -.11811699E+04  d E =-.395600E-02  mag=     0.9489
       N       E                     dE             d eps       ncg     rms          rms(c)
DAV:   1    -0.117391399223E+04    0.12120E+00   -0.27455E+00  1872   0.841E+00    0.108E+00
RMM:   2    -0.117408322819E+04   -0.16924E+00   -0.17153E+00  1776   0.105E+00    0.384E-01
RMM:   3    -0.117403594838E+04    0.47280E-01   -0.48784E-02  1610   0.197E-01    0.290E-01
RMM:   4    -0.117403627667E+04   -0.32829E-03   -0.71668E-03  1279   0.490E-02    0.282E-01
RMM:   5    -0.117403614418E+04    0.13249E-03   -0.33642E-04  1110   0.234E-02    0.229E-01
RMM:   6    -0.117403648211E+04   -0.33793E-03   -0.14150E-03  1510   0.458E-02    0.748E-02
RMM:   7    -0.117403659142E+04   -0.10930E-03   -0.13916E-04  1032   0.191E-02    0.467E-02
RMM:   8    -0.117403663686E+04   -0.45441E-04   -0.38092E-05   995   0.105E-02
   8 F= -.11811753E+04 E0= -.11811711E+04  d E =-.808142E-03  mag=     0.9545
       N       E                     dE             d eps       ncg     rms          rms(c)
DAV:   1    -0.117401413260E+04    0.22459E-01   -0.50984E-01  1944   0.363E+00    0.442E-01
RMM:   2    -0.117404573331E+04   -0.31601E-01   -0.32053E-01  1755   0.452E-01    0.163E-01
RMM:   3    -0.117403715852E+04    0.85748E-02   -0.95204E-03  1302   0.828E-02    0.126E-01
RMM:   4    -0.117403718863E+04   -0.30102E-04   -0.12119E-03  1082   0.210E-02    0.121E-01
RMM:   5    -0.117403717641E+04    0.12215E-04   -0.12705E-04  1010   0.155E-02
   9 F= -.11811761E+04 E0= -.11811717E+04  d E =-.162217E-02  mag=     0.9534
       N       E                     dE             d eps       ncg     rms          rms(c)
DAV:   1    -0.117401936219E+04    0.17826E-01   -0.50738E-01  1800   0.332E+00    0.407E-01
RMM:   2    -0.117404584352E+04   -0.26481E-01   -0.26850E-01  1793   0.432E-01    0.146E-01
RMM:   3    -0.117403864934E+04    0.71942E-02   -0.77979E-03  1318   0.790E-02    0.116E-01
RMM:   4    -0.117403869431E+04   -0.44974E-04   -0.10196E-03  1079   0.203E-02    0.109E-01
RMM:   5    -0.117403870841E+04   -0.14097E-04   -0.13433E-04  1023   0.164E-02
  10 F= -.11811772E+04 E0= -.11811731E+04  d E =-.112432E-02  mag=     0.9525
       N       E                     dE             d eps       ncg     rms          rms(c)
DAV:   1    -0.117403238225E+04    0.63121E-02   -0.17701E-01  1872   0.199E+00    0.228E-01
RMM:   2    -0.117404144697E+04   -0.90647E-02   -0.92757E-02  1765   0.254E-01    0.112E-01
RMM:   3    -0.117403892288E+04    0.25241E-02   -0.27344E-03  1219   0.459E-02    0.944E-02
RMM:   4    -0.117403894538E+04   -0.22502E-04   -0.29943E-04  1011   0.119E-02
  11 F= -.11811772E+04 E0= -.11811731E+04  d E =-.112040E-02  mag=     0.9529
       N       E                     dE             d eps       ncg     rms          rms(c)
DAV:   1    -0.117403481490E+04    0.41080E-02   -0.15494E-01  1764   0.174E+00    0.201E-01
RMM:   2    -0.117404169604E+04   -0.68811E-02   -0.70797E-02  1730   0.226E-01    0.108E-01
RMM:   3    -0.117403978013E+04    0.19159E-02   -0.20771E-03  1192   0.414E-02    0.927E-02
RMM:   4    -0.117403980264E+04   -0.22509E-04   -0.23354E-04  1004   0.115E-02
  12 F= -.11811778E+04 E0= -.11811737E+04  d E =-.605715E-03  mag=     0.9538
       N       E                     dE             d eps       ncg     rms          rms(c)
DAV:   1    -0.117401819252E+04    0.21588E-01   -0.68301E-01  1692   0.363E+00    0.436E-01
RMM:   2    -0.117404873131E+04   -0.30539E-01   -0.31161E-01  1802   0.472E-01    0.205E-01
RMM:   3    -0.117404049240E+04    0.82389E-02   -0.91259E-03  1338   0.852E-02    0.172E-01
RMM:   4    -0.117404055757E+04   -0.65174E-04   -0.10893E-03  1108   0.220E-02    0.153E-01
RMM:   5    -0.117404067613E+04   -0.11856E-03   -0.27222E-04  1121   0.229E-02    0.779E-02
RMM:   6    -0.117404078245E+04   -0.10631E-03   -0.12766E-04  1028   0.162E-02    0.344E-02
RMM:   7    -0.117404083511E+04   -0.52663E-04   -0.19854E-05   990   0.845E-03
  13 F= -.11811783E+04 E0= -.11811743E+04  d E =-.110750E-02  mag=     0.9564
       N       E                     dE             d eps       ncg     rms          rms(c)
DAV:   1    -0.117403979903E+04    0.98342E-03   -0.87116E-02  1836   0.109E+00    0.133E-01
RMM:   2    -0.117404221347E+04   -0.24144E-02   -0.25199E-02  1726   0.150E-01    0.660E-02
RMM:   3    -0.117404161026E+04    0.60321E-03   -0.76075E-04  1107   0.277E-02    0.563E-02
RMM:   4    -0.117404162350E+04   -0.13241E-04   -0.91417E-05   979   0.947E-03
  14 F= -.11811789E+04 E0= -.11811748E+04  d E =-.541121E-03  mag=     0.9548
       N       E                     dE             d eps       ncg     rms          rms(c)
DAV:   1    -0.117403673530E+04    0.48750E-02   -0.25925E-01  1692   0.189E+00    0.230E-01
RMM:   2    -0.117404406376E+04   -0.73285E-02   -0.75937E-02  1785   0.258E-01    0.130E-01
RMM:   3    -0.117404226319E+04    0.18006E-02   -0.22822E-03  1236   0.472E-02    0.113E-01
RMM:   4    -0.117404228716E+04   -0.23969E-04   -0.28190E-04  1036   0.155E-02
  15 F= -.11811791E+04 E0= -.11811750E+04  d E =-.775442E-03  mag=     0.9533
