       N       E                     dE             d eps       ncg     rms          rms(c)
DAV:   1     0.461051708741E+04    0.46105E+04   -0.17936E+05  1920   0.947E+02
DAV:   2    -0.667971944181E+02   -0.46773E+04   -0.42499E+04  2368   0.209E+02
DAV:   3    -0.119563780459E+04   -0.11288E+04   -0.11241E+04  2080   0.111E+02
DAV:   4    -0.124196740619E+04   -0.46330E+02   -0.46034E+02  1920   0.292E+01
DAV:   5    -0.124311018477E+04   -0.11428E+01   -0.11384E+01  2272   0.426E+00    0.732E+01
RMM:   6    -0.122713389049E+04    0.15976E+02   -0.89250E+00  1576   0.361E+00    0.578E+01
RMM:   7    -0.119351674033E+04    0.33617E+02   -0.72462E+01  1603   0.101E+01    0.315E+01
RMM:   8    -0.118164370438E+04    0.11873E+02   -0.19979E+01  1555   0.622E+00    0.246E+01
RMM:   9    -0.117951584738E+04    0.21279E+01   -0.25891E+01  1565   0.648E+00    0.170E+01
RMM:  10    -0.117784288957E+04    0.16730E+01   -0.59395E+00  1623   0.355E+00    0.122E+01
RMM:  11    -0.117935513987E+04   -0.15123E+01   -0.29323E+00  1585   0.215E+00    0.798E+00
RMM:  12    -0.117782074611E+04    0.15344E+01   -0.74870E-01  1547   0.120E+00    0.529E+00
RMM:  13    -0.117738528608E+04    0.43546E+00   -0.13637E+00  1557   0.141E+00    0.172E+00
RMM:  14    -0.117737058322E+04    0.14703E-01   -0.14289E-01  1556   0.621E-01    0.114E+00
RMM:  15    -0.117736464280E+04    0.59404E-02   -0.59509E-02  1591   0.320E-01    0.894E-01
RMM:  16    -0.117736091429E+04    0.37285E-02   -0.17502E-02  1692   0.174E-01    0.743E-01
RMM:  17    -0.117736208139E+04   -0.11671E-02   -0.33542E-03  1835   0.733E-02    0.801E-01
RMM:  18    -0.117736079480E+04    0.12866E-02   -0.50302E-03  1556   0.832E-02    0.819E-01
RMM:  19    -0.117736292241E+04   -0.21276E-02   -0.75612E-03  1581   0.101E-01    0.127E+00
RMM:  20    -0.117736097189E+04    0.19505E-02   -0.36315E-03  1564   0.792E-02    0.641E-01
RMM:  21    -0.117736026953E+04    0.70236E-03   -0.54533E-03  1641   0.824E-02    0.172E-01
RMM:  22    -0.117736039695E+04   -0.12741E-03   -0.96567E-04  1664   0.429E-02    0.954E-02
RMM:  23    -0.117736042033E+04   -0.23386E-04   -0.30632E-04  1816   0.207E-02    0.750E-02
RMM:  24    -0.117736051817E+04   -0.97836E-04   -0.16826E-04  1613   0.127E-02    0.833E-02
RMM:  25    -0.117736049947E+04    0.18698E-04   -0.70175E-05  1881   0.715E-03    0.820E-02
RMM:  26    -0.117736050008E+04   -0.60732E-06   -0.35551E-05  1414   0.340E-03    0.927E-02
RMM:  27    -0.117736049841E+04    0.16643E-05   -0.71627E-05  1711   0.871E-03    0.629E-02
RMM:  28    -0.117736053406E+04   -0.35643E-04   -0.83355E-05  1801   0.986E-03    0.490E-02
RMM:  29    -0.117736052054E+04    0.13514E-04   -0.38470E-05  1595   0.641E-03    0.385E-02
RMM:  30    -0.117736055313E+04   -0.32590E-04   -0.47667E-05  1697   0.763E-03    0.333E-02
RMM:  31    -0.117736058140E+04   -0.28267E-04   -0.62816E-05  1752   0.803E-03    0.339E-02
RMM:  32    -0.117736060303E+04   -0.21632E-04   -0.45573E-05  1715   0.669E-03    0.330E-02
RMM:  33    -0.117736062126E+04   -0.18232E-04   -0.28324E-05  1606   0.508E-03    0.275E-02
RMM:  34    -0.117736064052E+04   -0.19257E-04   -0.41822E-05  1758   0.657E-03    0.277E-02
RMM:  35    -0.117736064840E+04   -0.78832E-05   -0.30921E-05  1674   0.541E-03    0.250E-02
RMM:  36    -0.117736065203E+04   -0.36234E-05   -0.20138E-05  1544   0.424E-03    0.190E-02
RMM:  37    -0.117736065290E+04   -0.87496E-06   -0.36573E-05  1787   0.600E-03    0.113E-02
RMM:  38    -0.117736065292E+04   -0.21580E-07   -0.12551E-05  1343   0.290E-03    0.459E-03
RMM:  39    -0.117736065276E+04    0.16553E-06   -0.57348E-06  1085   0.203E-03
   1 F= -.11846542E+04 E0= -.11846542E+04  d E =-.118465E+04  mag=     0.0002
       N       E                     dE             d eps       ncg     rms          rms(c)
DAV:   1    -0.117735543179E+04    0.52211E-02   -0.51493E-01  1632   0.121E+00    0.400E-01
RMM:   2    -0.117735739223E+04   -0.19604E-02   -0.21499E-02  1721   0.215E-01    0.341E-01
RMM:   3    -0.117735752195E+04   -0.12972E-03   -0.43081E-03  1683   0.901E-02    0.237E-01
RMM:   4    -0.117735762368E+04   -0.10173E-03   -0.19918E-03  1596   0.597E-02    0.715E-02
RMM:   5    -0.117735755178E+04    0.71908E-04   -0.28606E-04  1651   0.252E-02    0.522E-02
RMM:   6    -0.117735752086E+04    0.30916E-04   -0.18397E-04  1583   0.160E-02    0.222E-02
RMM:   7    -0.117735751919E+04    0.16756E-05   -0.33601E-05  1768   0.802E-03    0.147E-02
RMM:   8    -0.117735751773E+04    0.14549E-05   -0.17322E-05  1571   0.512E-03    0.937E-03
RMM:   9    -0.117735751747E+04    0.26199E-06   -0.39773E-06  1238   0.269E-03
   2 F= -.11846528E+04 E0= -.11846528E+04  d E =0.140749E-02  mag=    -0.0000
       N       E                     dE             d eps       ncg     rms          rms(c)
DAV:   1    -0.117736000678E+04   -0.24891E-02   -0.20492E-01  1856   0.768E-01    0.253E-01
RMM:   2    -0.117736071687E+04   -0.71008E-03   -0.79334E-03  1717   0.133E-01    0.216E-01
RMM:   3    -0.117736073021E+04   -0.13339E-04   -0.14725E-03  1656   0.546E-02    0.149E-01
RMM:   4    -0.117736077194E+04   -0.41735E-04   -0.82454E-04  1588   0.379E-02    0.464E-02
RMM:   5    -0.117736073514E+04    0.36805E-04   -0.10211E-04  1596   0.158E-02    0.344E-02
RMM:   6    -0.117736072187E+04    0.13265E-04   -0.82678E-05  1561   0.106E-02    0.129E-02
RMM:   7    -0.117736072114E+04    0.73478E-06   -0.15154E-05  1645   0.539E-03    0.101E-02
RMM:   8    -0.117736072021E+04    0.92963E-06   -0.39286E-06  1304   0.255E-03
   3 F= -.11846549E+04 E0= -.11846549E+04  d E =-.698239E-03  mag=     0.0000
       N       E                     dE             d eps       ncg     rms          rms(c)
DAV:   1    -0.117736031014E+04    0.41100E-03   -0.31245E-01  1760   0.916E-01    0.161E-01
RMM:   2    -0.117736111519E+04   -0.80505E-03   -0.92437E-03  1711   0.140E-01    0.137E-01
RMM:   3    -0.117736123208E+04   -0.11689E-03   -0.16840E-03  1683   0.568E-02    0.120E-01
RMM:   4    -0.117736120806E+04    0.24015E-04   -0.45257E-04  1656   0.286E-02    0.702E-02
RMM:   5    -0.117736123433E+04   -0.26273E-04   -0.19225E-04  1578   0.186E-02    0.331E-02
RMM:   6    -0.117736121658E+04    0.17755E-04   -0.46946E-05  1546   0.959E-03    0.163E-02
RMM:   7    -0.117736121753E+04   -0.94992E-06   -0.19996E-05  1600   0.556E-03    0.940E-03
RMM:   8    -0.117736121562E+04    0.19077E-05   -0.46599E-06  1337   0.283E-03    0.668E-03
RMM:   9    -0.117736121576E+04   -0.14288E-06   -0.44176E-06  1346   0.258E-03
   4 F= -.11846557E+04 E0= -.11846557E+04  d E =-.806836E-03  mag=     0.0000
       N       E                     dE             d eps       ncg     rms          rms(c)
DAV:   1    -0.117736123209E+04   -0.16470E-04   -0.87824E-04  1760   0.486E-02    0.885E-03
RMM:   2    -0.117736123438E+04   -0.22838E-05   -0.24565E-05  1690   0.745E-03    0.758E-03
RMM:   3    -0.117736123468E+04   -0.30173E-06   -0.43406E-06  1210   0.304E-03
   5 F= -.11846557E+04 E0= -.11846557E+04  d E =-.808996E-03  mag=     0.0000
       N       E                     dE             d eps       ncg     rms          rms(c)
DAV:   1    -0.117736157713E+04   -0.34275E-03   -0.15087E-01  1664   0.591E-01    0.870E-02
RMM:   2    -0.117736178986E+04   -0.21273E-03   -0.24537E-03  1645   0.774E-02    0.746E-02
RMM:   3    -0.117736180710E+04   -0.17239E-04   -0.44450E-04  1607   0.329E-02    0.622E-02
RMM:   4    -0.117736180150E+04    0.55993E-05   -0.20818E-04  1575   0.209E-02    0.229E-02
RMM:   5    -0.117736180620E+04   -0.46949E-05   -0.40761E-05  1735   0.926E-03    0.179E-02
RMM:   6    -0.117736180254E+04    0.36557E-05   -0.11653E-05  1507   0.435E-03    0.116E-02
RMM:   7    -0.117736180344E+04   -0.89567E-06   -0.62627E-06  1439   0.300E-03
   6 F= -.11846564E+04 E0= -.11846564E+04  d E =-.674272E-03  mag=     0.0000
       N       E                     dE             d eps       ncg     rms          rms(c)
DAV:   1    -0.117736180721E+04   -0.46695E-05   -0.62010E-02  1664   0.379E-01    0.556E-02
RMM:   2    -0.117736189547E+04   -0.88261E-04   -0.10144E-03  1649   0.496E-02    0.480E-02
RMM:   3    -0.117736190498E+04   -0.95126E-05   -0.19121E-04  1610   0.212E-02    0.405E-02
RMM:   4    -0.117736190609E+04   -0.11102E-05   -0.89638E-05  1573   0.136E-02    0.154E-02
RMM:   5    -0.117736190832E+04   -0.22251E-05   -0.17744E-05  1696   0.603E-03    0.123E-02
RMM:   6    -0.117736190710E+04    0.12173E-05   -0.57154E-06  1367   0.297E-03    0.815E-03
RMM:   7    -0.117736190793E+04   -0.83344E-06   -0.31314E-06  1167   0.214E-03
   7 F= -.11846566E+04 E0= -.11846566E+04  d E =-.847244E-03  mag=     0.0000
       N       E                     dE             d eps       ncg     rms          rms(c)
DAV:   1    -0.117736241262E+04   -0.50552E-03   -0.17281E-01  1536   0.598E-01    0.778E-02
RMM:   2    -0.117736259745E+04   -0.18482E-03   -0.21906E-03  1546   0.710E-02    0.679E-02
RMM:   3    -0.117736260706E+04   -0.96151E-05   -0.36141E-04  1596   0.302E-02    0.572E-02
RMM:   4    -0.117736259867E+04    0.83939E-05   -0.20929E-04  1572   0.203E-02    0.174E-02
RMM:   5    -0.117736260344E+04   -0.47713E-05   -0.37116E-05  1708   0.879E-03    0.139E-02
RMM:   6    -0.117736259953E+04    0.39057E-05   -0.79313E-06  1482   0.374E-03    0.962E-03
RMM:   7    -0.117736259991E+04   -0.37233E-06   -0.92033E-06  1476   0.342E-03
   8 F= -.11846573E+04 E0= -.11846573E+04  d E =-.747759E-03  mag=     0.0000
       N       E                     dE             d eps       ncg     rms          rms(c)
DAV:   1    -0.117736269068E+04   -0.91141E-04   -0.20017E-01  1536   0.644E-01    0.847E-02
RMM:   2    -0.117736290404E+04   -0.21336E-03   -0.25279E-03  1548   0.762E-02    0.740E-02
RMM:   3    -0.117736291689E+04   -0.12857E-04   -0.41929E-04  1601   0.324E-02    0.623E-02
RMM:   4    -0.117736291055E+04    0.63400E-05   -0.23879E-04  1574   0.217E-02    0.184E-02
RMM:   5    -0.117736291543E+04   -0.48720E-05   -0.41386E-05  1723   0.932E-03    0.148E-02
RMM:   6    -0.117736291064E+04    0.47876E-05   -0.91667E-06  1494   0.399E-03    0.101E-02
RMM:   7    -0.117736291092E+04   -0.28509E-06   -0.10888E-05  1491   0.369E-03    0.500E-03
RMM:   8    -0.117736291064E+04    0.28375E-06   -0.14760E-06  1033   0.174E-03
   9 F= -.11846577E+04 E0= -.11846577E+04  d E =-.111964E-02  mag=     0.0000
       N       E                     dE             d eps       ncg     rms          rms(c)
DAV:   1    -0.117736334834E+04   -0.43742E-03   -0.14480E-01  1536   0.539E-01    0.704E-02
RMM:   2    -0.117736351544E+04   -0.16710E-03   -0.19551E-03  1588   0.662E-02    0.599E-02
RMM:   3    -0.117736352407E+04   -0.86297E-05   -0.30384E-04  1592   0.278E-02    0.504E-02
RMM:   4    -0.117736351501E+04    0.90615E-05   -0.16361E-04  1576   0.182E-02    0.154E-02
RMM:   5    -0.117736351993E+04   -0.49247E-05   -0.30797E-05  1677   0.798E-03    0.113E-02
RMM:   6    -0.117736351626E+04    0.36733E-05   -0.84524E-06  1459   0.372E-03    0.791E-03
RMM:   7    -0.117736351698E+04   -0.71707E-06   -0.65777E-06  1405   0.296E-03
  10 F= -.11846583E+04 E0= -.11846583E+04  d E =-.607287E-03  mag=     0.0000
       N       E                     dE             d eps       ncg     rms          rms(c)
DAV:   1    -0.117736361437E+04   -0.98113E-04   -0.25134E-01  1536   0.710E-01    0.928E-02
RMM:   2    -0.117736390359E+04   -0.28922E-03   -0.33810E-03  1588   0.869E-02    0.789E-02
RMM:   3    -0.117736392103E+04   -0.17441E-04   -0.53125E-04  1596   0.365E-02    0.665E-02
RMM:   4    -0.117736390824E+04    0.12795E-04   -0.27447E-04  1574   0.236E-02    0.206E-02
RMM:   5    -0.117736391659E+04   -0.83465E-05   -0.53166E-05  1706   0.105E-02    0.151E-02
RMM:   6    -0.117736391020E+04    0.63867E-05   -0.14261E-05  1532   0.481E-03    0.105E-02
RMM:   7    -0.117736391131E+04   -0.11121E-05   -0.10822E-05  1501   0.379E-03    0.528E-03
RMM:   8    -0.117736391086E+04    0.45517E-06   -0.16057E-06  1029   0.178E-03
  11 F= -.11846587E+04 E0= -.11846587E+04  d E =-.100366E-02  mag=     0.0000
       N       E                     dE             d eps       ncg     rms          rms(c)
DAV:   1    -0.117736390546E+04    0.58483E-05   -0.32421E-02  1600   0.255E-01    0.334E-02
RMM:   2    -0.117736394290E+04   -0.37438E-04   -0.44163E-04  1588   0.315E-02    0.285E-02
RMM:   3    -0.117736394464E+04   -0.17348E-05   -0.69149E-05  1591   0.132E-02    0.241E-02
RMM:   4    -0.117736394262E+04    0.20122E-05   -0.39724E-05  1567   0.887E-03    0.790E-03
RMM:   5    -0.117736394392E+04   -0.12976E-05   -0.77103E-06  1505   0.397E-03    0.597E-03
RMM:   6    -0.117736394299E+04    0.93434E-06   -0.21898E-06  1074   0.192E-03
  12 F= -.11846587E+04 E0= -.11846587E+04  d E =-.103704E-02  mag=     0.0000
       N       E                     dE             d eps       ncg     rms          rms(c)
DAV:   1    -0.117736407806E+04   -0.13414E-03   -0.11610E-01  1536   0.474E-01    0.646E-02
RMM:   2    -0.117736423659E+04   -0.15853E-03   -0.18157E-03  1658   0.625E-02    0.533E-02
RMM:   3    -0.117736425196E+04   -0.15373E-04   -0.29993E-04  1606   0.259E-02    0.446E-02
RMM:   4    -0.117736424767E+04    0.42882E-05   -0.10357E-04  1613   0.145E-02    0.187E-02
RMM:   5    -0.117736425356E+04   -0.58807E-05   -0.28653E-05  1553   0.726E-03    0.105E-02
RMM:   6    -0.117736425129E+04    0.22610E-05   -0.71973E-06  1412   0.358E-03    0.721E-03
RMM:   7    -0.117736425185E+04   -0.56012E-06   -0.49238E-06  1362   0.258E-03
  13 F= -.11846591E+04 E0= -.11846591E+04  d E =-.392554E-03  mag=     0.0000
