       N       E                     dE             d eps       ncg     rms          rms(c)
DAV:   1     0.486198203865E+04    0.48620E+04   -0.17224E+05  1872   0.907E+02
DAV:   2    -0.561483254274E+02   -0.49181E+04   -0.44734E+04  2520   0.205E+02
DAV:   3    -0.118925150170E+04   -0.11331E+04   -0.11287E+04  2088   0.109E+02
DAV:   4    -0.123552417670E+04   -0.46273E+02   -0.46015E+02  2052   0.290E+01
DAV:   5    -0.123671175266E+04   -0.11876E+01   -0.11839E+01  2268   0.428E+00    0.677E+01
RMM:   6    -0.122160663456E+04    0.15105E+02   -0.11000E+01  1632   0.344E+00    0.533E+01
RMM:   7    -0.119060346833E+04    0.31003E+02   -0.46510E+01  1603   0.745E+00    0.321E+01
RMM:   8    -0.117560530740E+04    0.14998E+02   -0.23041E+01  1597   0.537E+00    0.228E+01
RMM:   9    -0.117229936915E+04    0.33059E+01   -0.28771E+01  1585   0.603E+00    0.114E+01
RMM:  10    -0.117294852855E+04   -0.64916E+00   -0.26014E+00  1642   0.190E+00    0.712E+00
RMM:  11    -0.117227259238E+04    0.67594E+00   -0.47373E-01  1592   0.795E-01    0.496E+00
RMM:  12    -0.117196315438E+04    0.30944E+00   -0.13153E+00  1584   0.124E+00    0.112E+00
RMM:  13    -0.117194845917E+04    0.14695E-01   -0.59596E-02  1671   0.283E-01    0.520E-01
RMM:  14    -0.117194637989E+04    0.20793E-02   -0.10703E-02  1671   0.116E-01    0.351E-01
RMM:  15    -0.117194513774E+04    0.12422E-02   -0.40236E-03  1689   0.670E-02    0.247E-01
RMM:  16    -0.117194531229E+04   -0.17455E-03   -0.15191E-03  1570   0.418E-02    0.186E-01
RMM:  17    -0.117194548589E+04   -0.17360E-03   -0.85304E-04  1600   0.335E-02    0.920E-02
RMM:  18    -0.117194548986E+04   -0.39656E-05   -0.19775E-04  1108   0.153E-02
   1 F= -.11792081E+04 E0= -.11792081E+04  d E =-.117921E+04  mag=     1.9979
       N       E                     dE             d eps       ncg     rms          rms(c)
DAV:   1    -0.117194356729E+04    0.19186E-02   -0.49394E-01  1872   0.114E+00    0.354E-01
RMM:   2    -0.117194561451E+04   -0.20472E-02   -0.23183E-02  1761   0.197E-01    0.304E-01
RMM:   3    -0.117194523068E+04    0.38383E-03   -0.14877E-03  1755   0.456E-02    0.240E-01
RMM:   4    -0.117194495056E+04    0.28011E-03   -0.24292E-03  1593   0.534E-02    0.102E-01
RMM:   5    -0.117194490951E+04    0.41052E-04   -0.10473E-04  1102   0.132E-02
   2 F= -.11792077E+04 E0= -.11792077E+04  d E =0.407369E-03  mag=     1.9998
       N       E                     dE             d eps       ncg     rms          rms(c)
DAV:   1    -0.117194610014E+04   -0.11496E-02   -0.15871E-01  1692   0.650E-01    0.189E-01
RMM:   2    -0.117194662352E+04   -0.52338E-03   -0.65165E-03  1746   0.107E-01    0.158E-01
RMM:   3    -0.117194643234E+04    0.19118E-03   -0.43266E-04  1243   0.259E-02    0.115E-01
RMM:   4    -0.117194631674E+04    0.11561E-03   -0.85325E-04  1556   0.322E-02    0.513E-02
RMM:   5    -0.117194631024E+04    0.64995E-05   -0.37546E-05  1046   0.866E-03
   3 F= -.11792090E+04 E0= -.11792090E+04  d E =-.893372E-03  mag=     2.0000
