       N       E                     dE             d eps       ncg     rms          rms(c)
DAV:   1     0.489541259984E+04    0.48954E+04   -0.17532E+05  1824   0.944E+02
DAV:   2    -0.437063459679E+02   -0.49391E+04   -0.45120E+04  2432   0.214E+02
DAV:   3    -0.119317691198E+04   -0.11495E+04   -0.11437E+04  2016   0.113E+02
DAV:   4    -0.124092661196E+04   -0.47750E+02   -0.47448E+02  2016   0.301E+01
DAV:   5    -0.124213042315E+04   -0.12038E+01   -0.12010E+01  2336   0.438E+00    0.749E+01
RMM:   6    -0.122374725288E+04    0.18383E+02   -0.14960E+01  1565   0.473E+00    0.518E+01
RMM:   7    -0.120275799959E+04    0.20989E+02   -0.27064E+01  1540   0.615E+00    0.383E+01
RMM:   8    -0.118759021348E+04    0.15168E+02   -0.15168E+01  1548   0.537E+00    0.302E+01
RMM:   9    -0.117541588347E+04    0.12174E+02   -0.17908E+01  1577   0.561E+00    0.212E+01
RMM:  10    -0.117544129051E+04   -0.25407E-01   -0.23713E+01  1620   0.639E+00    0.147E+01
RMM:  11    -0.117511778102E+04    0.32351E+00   -0.31974E+00  1670   0.297E+00    0.801E+00
RMM:  12    -0.117473897817E+04    0.37880E+00   -0.47004E-01  1590   0.108E+00    0.538E+00
RMM:  13    -0.117436899768E+04    0.36998E+00   -0.13720E+00  1538   0.147E+00    0.208E+00
RMM:  14    -0.117435203263E+04    0.16965E-01   -0.21296E-01  1555   0.711E-01    0.131E+00
RMM:  15    -0.117434929221E+04    0.27404E-02   -0.54189E-02  1574   0.329E-01    0.659E-01
RMM:  16    -0.117435143751E+04   -0.21453E-02   -0.24573E-02  1583   0.216E-01    0.566E-01
RMM:  17    -0.117435233625E+04   -0.89874E-03   -0.12570E-02  1655   0.153E-01    0.299E-01
RMM:  18    -0.117435365917E+04   -0.13229E-02   -0.64819E-03  1723   0.108E-01    0.287E-01
RMM:  19    -0.117435365500E+04    0.41643E-05   -0.18238E-03  1742   0.609E-02    0.195E-01
RMM:  20    -0.117435375693E+04   -0.10193E-03   -0.16090E-03  1550   0.512E-02    0.135E-01
RMM:  21    -0.117435381495E+04   -0.58014E-04   -0.48317E-04  1819   0.268E-02    0.122E-01
RMM:  22    -0.117435383570E+04   -0.20749E-04   -0.99531E-05  2084   0.114E-02    0.134E-01
RMM:  23    -0.117435381848E+04    0.17215E-04   -0.18359E-04  1565   0.180E-02    0.119E-01
RMM:  24    -0.117435381274E+04    0.57352E-05   -0.66366E-05  1580   0.113E-02    0.102E-01
RMM:  25    -0.117435381384E+04   -0.10938E-05   -0.24081E-05  1560   0.681E-03    0.101E-01
RMM:  26    -0.117435381711E+04   -0.32723E-05   -0.12211E-05  1550   0.492E-03    0.900E-02
RMM:  27    -0.117435382552E+04   -0.84060E-05   -0.29549E-06  1142   0.248E-03    0.794E-02
RMM:  28    -0.117435382550E+04    0.19987E-07   -0.58491E-07  1022   0.111E-03
   1 F= -.11814151E+04 E0= -.11814136E+04  d E =-.118142E+04  mag=     1.9655
