       N       E                     dE             d eps       ncg     rms          rms(c)
DAV:   1     0.517842360972E+04    0.51784E+04   -0.16939E+05  1704   0.982E+02
DAV:   2     0.147448679160E+03   -0.50310E+04   -0.45738E+04  2264   0.230E+02
DAV:   3    -0.112141128821E+04   -0.12689E+04   -0.12481E+04  1968   0.132E+02
DAV:   4    -0.123025266349E+04   -0.10884E+03   -0.10820E+03  2304   0.571E+01
DAV:   5    -0.123180116662E+04   -0.15485E+01   -0.15317E+01  1864   0.550E+00    0.605E+01
RMM:   6    -0.121865560332E+04    0.13146E+02   -0.70862E+00  1842   0.442E+00    0.492E+01
RMM:   7    -0.117348281807E+04    0.45173E+02   -0.70799E+01  1562   0.112E+01    0.277E+01
RMM:   8    -0.116470673545E+04    0.87761E+01   -0.49394E+01  1713   0.998E+00    0.146E+01
RMM:   9    -0.116598343490E+04   -0.12767E+01   -0.14195E+01  1831   0.611E+00    0.104E+01
RMM:  10    -0.116536813905E+04    0.61530E+00   -0.20978E+00  1770   0.245E+00    0.639E+00
RMM:  11    -0.116515984964E+04    0.20829E+00   -0.12422E+00  1693   0.148E+00    0.270E+00
RMM:  12    -0.116532043980E+04   -0.16059E+00   -0.28515E-01  1889   0.978E-01    0.104E+00
RMM:  13    -0.116549349819E+04   -0.17306E+00   -0.13519E-01  1739   0.487E-01    0.479E-01
RMM:  14    -0.116551295124E+04   -0.19453E-01   -0.30069E-02  1525   0.281E-01    0.232E-01
RMM:  15    -0.116550497944E+04    0.79718E-02   -0.96782E-03  1341   0.224E-01    0.185E-01
RMM:  16    -0.116551311008E+04   -0.81306E-02   -0.53945E-03  1115   0.179E-01    0.124E-01
RMM:  17    -0.116551875053E+04   -0.56405E-02   -0.43513E-03  1003   0.129E-01    0.952E-02
RMM:  18    -0.116552309551E+04   -0.43450E-02   -0.47231E-03  1003   0.910E-02    0.764E-02
RMM:  19    -0.116553597526E+04   -0.12880E-01   -0.36480E-02  1050   0.989E-02    0.897E-02
RMM:  20    -0.116552931762E+04    0.66576E-02   -0.87361E-03   984   0.764E-02    0.760E-02
RMM:  21    -0.116552090007E+04    0.84175E-02   -0.59297E-03   975   0.554E-02    0.494E-02
RMM:  22    -0.116552099302E+04   -0.92946E-04   -0.63488E-04   950   0.395E-02
   1 F= -.11725280E+04 E0= -.11725205E+04  d E =-.117253E+04  mag=     0.2679
