       N       E                     dE             d eps       ncg     rms          rms(c)
DAV:   1     0.486094595972E+04    0.48609E+04   -0.16907E+05  1836   0.901E+02
DAV:   2    -0.639175396423E+02   -0.49249E+04   -0.44700E+04  2520   0.205E+02
DAV:   3    -0.118662417426E+04   -0.11227E+04   -0.11179E+04  2160   0.109E+02
DAV:   4    -0.123067909655E+04   -0.44055E+02   -0.43837E+02  2088   0.284E+01
DAV:   5    -0.123181976483E+04   -0.11407E+01   -0.11386E+01  2412   0.420E+00    0.655E+01
RMM:   6    -0.121587085556E+04    0.15949E+02   -0.16783E+01  1584   0.396E+00    0.509E+01
RMM:   7    -0.119336670159E+04    0.22504E+02   -0.18531E+01  1584   0.493E+00    0.368E+01
RMM:   8    -0.116954523292E+04    0.23821E+02   -0.36640E+01  1584   0.687E+00    0.239E+01
RMM:   9    -0.116633430955E+04    0.32109E+01   -0.30202E+01  1584   0.620E+00    0.109E+01
RMM:  10    -0.116721938471E+04   -0.88508E+00   -0.26987E+00  1596   0.198E+00    0.811E+00
RMM:  11    -0.116628181890E+04    0.93757E+00   -0.17021E+00  1584   0.140E+00    0.378E+00
RMM:  12    -0.116611451155E+04    0.16731E+00   -0.31623E-01  1584   0.638E-01    0.138E+00
RMM:  13    -0.116609370510E+04    0.20806E-01   -0.93425E-02  1584   0.334E-01    0.871E-01
RMM:  14    -0.116608680851E+04    0.68966E-02   -0.38362E-02  1594   0.217E-01    0.255E-01
RMM:  15    -0.116608702704E+04   -0.21854E-03   -0.22797E-03  1618   0.582E-02    0.186E-01
RMM:  16    -0.116608730695E+04   -0.27990E-03   -0.14256E-03  1584   0.426E-02    0.113E-01
RMM:  17    -0.116608757857E+04   -0.27162E-03   -0.44736E-04  1166   0.245E-02    0.711E-02
RMM:  18    -0.116608757639E+04    0.21805E-05   -0.13755E-04  1070   0.138E-02
   1 F= -.11733672E+04 E0= -.11733648E+04  d E =-.117337E+04  mag=    -0.9462
       N       E                     dE             d eps       ncg     rms          rms(c)
DAV:   1    -0.116608573891E+04    0.18397E-02   -0.75473E-01  1656   0.130E+00    0.429E-01
RMM:   2    -0.116608702878E+04   -0.12899E-02   -0.17438E-02  1586   0.177E-01    0.404E-01
RMM:   3    -0.116608664686E+04    0.38192E-03   -0.11931E-03  1554   0.401E-02    0.348E-01
RMM:   4    -0.116608607673E+04    0.57013E-03   -0.47077E-03  1584   0.758E-02    0.773E-02
RMM:   5    -0.116608602309E+04    0.53642E-04   -0.81971E-05  1056   0.140E-02
   2 F= -.11733663E+04 E0= -.11733637E+04  d E =0.954739E-03  mag=    -0.9365
       N       E                     dE             d eps       ncg     rms          rms(c)
DAV:   1    -0.116608870455E+04   -0.26278E-02   -0.22930E-01  1836   0.717E-01    0.228E-01
RMM:   2    -0.116608893935E+04   -0.23480E-03   -0.43259E-03  1585   0.903E-02    0.213E-01
RMM:   3    -0.116608874446E+04    0.19490E-03   -0.29713E-04  1151   0.215E-02    0.176E-01
RMM:   4    -0.116608854658E+04    0.19788E-03   -0.17100E-03  1584   0.462E-02    0.386E-02
RMM:   5    -0.116608852036E+04    0.26220E-04   -0.25527E-05  1008   0.814E-03
   3 F= -.11733684E+04 E0= -.11733659E+04  d E =-.121352E-02  mag=    -0.9358
       N       E                     dE             d eps       ncg     rms          rms(c)
DAV:   1    -0.116609008107E+04   -0.15345E-02   -0.34710E-01  1728   0.917E-01    0.261E-01
RMM:   2    -0.116609006584E+04    0.15224E-04   -0.63003E-03  1584   0.117E-01    0.230E-01
RMM:   3    -0.116608925118E+04    0.81466E-03   -0.72231E-04  1581   0.335E-02    0.176E-01
RMM:   4    -0.116608866696E+04    0.58422E-03   -0.35571E-03  1584   0.639E-02    0.648E-02
RMM:   5    -0.116608861410E+04    0.52858E-04   -0.69312E-05  1030   0.118E-02
   4 F= -.11733684E+04 E0= -.11733659E+04  d E =0.209562E-04  mag=    -0.9374
       N       E                     dE             d eps       ncg     rms          rms(c)
DAV:   1    -0.116608961389E+04   -0.94693E-03   -0.88878E-02  1836   0.464E-01    0.126E-01
RMM:   2    -0.116608955541E+04    0.58488E-04   -0.14311E-03  1584   0.555E-02    0.112E-01
RMM:   3    -0.116608929635E+04    0.25905E-03   -0.20039E-04  1061   0.183E-02    0.834E-02
RMM:   4    -0.116608913980E+04    0.15655E-03   -0.98737E-04  1584   0.343E-02    0.328E-02
RMM:   5    -0.116608912696E+04    0.12835E-04   -0.16861E-05   994   0.610E-03
   5 F= -.11733690E+04 E0= -.11733665E+04  d E =-.549264E-03  mag=    -0.9354
