       N       E                     dE             d eps       ncg     rms          rms(c)
DAV:   1     0.491580326853E+04    0.49158E+04   -0.17397E+05  1872   0.915E+02
DAV:   2    -0.493006722588E+02   -0.49651E+04   -0.45330E+04  2520   0.207E+02
DAV:   3    -0.119608932731E+04   -0.11468E+04   -0.11425E+04  2088   0.110E+02
DAV:   4    -0.124276282405E+04   -0.46673E+02   -0.46424E+02  2016   0.292E+01
DAV:   5    -0.124394908955E+04   -0.11863E+01   -0.11831E+01  2268   0.429E+00    0.667E+01
RMM:   6    -0.122979845033E+04    0.14151E+02   -0.88978E+00  1584   0.326E+00    0.548E+01
RMM:   7    -0.118709947034E+04    0.42699E+02   -0.88372E+01  1586   0.102E+01    0.300E+01
RMM:   8    -0.118158822643E+04    0.55112E+01   -0.13441E+01  1593   0.413E+00    0.216E+01
RMM:   9    -0.117907458169E+04    0.25136E+01   -0.26030E+01  1584   0.577E+00    0.110E+01
RMM:  10    -0.117890863109E+04    0.16595E+00   -0.22730E+00  1609   0.169E+00    0.662E+00
RMM:  11    -0.117836705336E+04    0.54158E+00   -0.65199E-01  1588   0.875E-01    0.446E+00
RMM:  12    -0.117805322527E+04    0.31383E+00   -0.11648E+00  1584   0.114E+00    0.126E+00
RMM:  13    -0.117800957719E+04    0.43648E-01   -0.18663E-01  1588   0.474E-01    0.582E-01
RMM:  14    -0.117800204762E+04    0.75296E-02   -0.24702E-02  1610   0.172E-01    0.261E-01
RMM:  15    -0.117800227226E+04   -0.22464E-03   -0.55183E-03  1617   0.824E-02    0.184E-01
RMM:  16    -0.117800233795E+04   -0.65694E-04   -0.27765E-03  1468   0.467E-02    0.161E-01
RMM:  17    -0.117800229861E+04    0.39345E-04   -0.13510E-03  1574   0.399E-02    0.767E-02
RMM:  18    -0.117800236794E+04   -0.69332E-04   -0.10673E-03  1590   0.372E-02    0.658E-02
RMM:  19    -0.117800228711E+04    0.80822E-04   -0.13148E-04  1039   0.137E-02
   1 F= -.11853006E+04 E0= -.11853006E+04  d E =-.118530E+04  mag=    -0.0001
       N       E                     dE             d eps       ncg     rms          rms(c)
DAV:   1    -0.117799903644E+04    0.33315E-02   -0.47931E-01  1620   0.110E+00    0.304E-01
RMM:   2    -0.117800120349E+04   -0.21670E-02   -0.26625E-02  1666   0.201E-01    0.265E-01
RMM:   3    -0.117800056022E+04    0.64327E-03   -0.15889E-03  1674   0.446E-02    0.211E-01
RMM:   4    -0.117800015872E+04    0.40149E-03   -0.36471E-03  1584   0.675E-02    0.732E-02
RMM:   5    -0.117800007685E+04    0.81869E-04   -0.70435E-05  1063   0.128E-02
   2 F= -.11852985E+04 E0= -.11852985E+04  d E =0.209164E-02  mag=    -0.0000
       N       E                     dE             d eps       ncg     rms          rms(c)
DAV:   1    -0.117800255738E+04   -0.23987E-02   -0.23108E-01  1692   0.765E-01    0.199E-01
RMM:   2    -0.117800346398E+04   -0.90661E-03   -0.11879E-02  1642   0.132E-01    0.172E-01
RMM:   3    -0.117800307737E+04    0.38661E-03   -0.69558E-04  1275   0.302E-02    0.136E-01
RMM:   4    -0.117800283565E+04    0.24172E-03   -0.18922E-03  1584   0.491E-02    0.477E-02
RMM:   5    -0.117800280130E+04    0.34345E-04   -0.32648E-05  1024   0.921E-03
   3 F= -.11853011E+04 E0= -.11853011E+04  d E =-.548297E-03  mag=    -0.0000
