       N       E                     dE             d eps       ncg     rms          rms(c)
DAV:   1     0.470074674567E+04    0.47007E+04   -0.17931E+05  1888   0.949E+02
DAV:   2    -0.708769785540E+02   -0.47716E+04   -0.43572E+04  2400   0.212E+02
DAV:   3    -0.119651373120E+04   -0.11256E+04   -0.11187E+04  2048   0.111E+02
DAV:   4    -0.124326667215E+04   -0.46753E+02   -0.46454E+02  1920   0.293E+01
DAV:   5    -0.124441417613E+04   -0.11475E+01   -0.11445E+01  2336   0.423E+00    0.814E+01
RMM:   6    -0.122978489574E+04    0.14629E+02   -0.72086E+01  1741   0.971E+00    0.745E+01
RMM:   7    -0.121314928848E+04    0.16636E+02   -0.88355E+00  1613   0.420E+00    0.470E+01
RMM:   8    -0.119613694053E+04    0.17012E+02   -0.14420E+01  1539   0.485E+00    0.359E+01
RMM:   9    -0.117511577749E+04    0.21021E+02   -0.32240E+01  1603   0.725E+00    0.226E+01
RMM:  10    -0.117107510619E+04    0.40407E+01   -0.14190E+01  1541   0.512E+00    0.159E+01
RMM:  11    -0.117189665279E+04   -0.82155E+00   -0.78015E+00  1574   0.387E+00    0.836E+00
RMM:  12    -0.117179846803E+04    0.98185E-01   -0.90977E-01  1706   0.165E+00    0.677E+00
RMM:  13    -0.117145346494E+04    0.34500E+00   -0.47560E-01  1548   0.969E-01    0.351E+00
RMM:  14    -0.117132777616E+04    0.12569E+00   -0.39823E-01  1563   0.816E-01    0.169E+00
RMM:  15    -0.117133640923E+04   -0.86331E-02   -0.13351E-01  1572   0.520E-01    0.115E+00
RMM:  16    -0.117135350807E+04   -0.17099E-01   -0.33741E-02  1628   0.276E-01    0.763E-01
RMM:  17    -0.117135576739E+04   -0.22593E-02   -0.16272E-02  1739   0.177E-01    0.532E-01
RMM:  18    -0.117135642482E+04   -0.65744E-03   -0.50705E-03  1764   0.933E-02    0.343E-01
RMM:  19    -0.117135630245E+04    0.12237E-03   -0.30241E-03  1717   0.787E-02    0.223E-01
RMM:  20    -0.117135678156E+04   -0.47911E-03   -0.63689E-04  1580   0.402E-02    0.144E-01
RMM:  21    -0.117135682745E+04   -0.45892E-04   -0.34944E-04  1593   0.269E-02    0.722E-02
RMM:  22    -0.117135686409E+04   -0.36632E-04   -0.81024E-05  1718   0.132E-02    0.597E-02
RMM:  23    -0.117135687751E+04   -0.13422E-04   -0.39025E-05  1687   0.859E-03    0.331E-02
RMM:  24    -0.117135687979E+04   -0.22852E-05   -0.13207E-05  1683   0.517E-03    0.197E-02
RMM:  25    -0.117135688061E+04   -0.81808E-06   -0.53112E-06  1437   0.352E-03
   1 F= -.11784213E+04 E0= -.11784193E+04  d E =-.117842E+04  mag=     1.9499
