       N       E                     dE             d eps       ncg     rms          rms(c)
DAV:   1     0.497167147160E+04    0.49717E+04   -0.17275E+05  1872   0.912E+02
DAV:   2    -0.230477167607E+02   -0.49947E+04   -0.45576E+04  2520   0.209E+02
DAV:   3    -0.117929099775E+04   -0.11562E+04   -0.11508E+04  2232   0.113E+02
DAV:   4    -0.123358585514E+04   -0.54295E+02   -0.54048E+02  2016   0.320E+01
DAV:   5    -0.123589075184E+04   -0.23049E+01   -0.23010E+01  2484   0.640E+00    0.624E+01
RMM:   6    -0.122157363645E+04    0.14317E+02   -0.81230E+00  1637   0.334E+00    0.508E+01
RMM:   7    -0.119076199831E+04    0.30812E+02   -0.56952E+01  1910   0.994E+00    0.414E+01
RMM:   8    -0.118295093907E+04    0.78111E+01   -0.43396E+00  1908   0.606E+00    0.323E+01
RMM:   9    -0.117561830687E+04    0.73326E+01   -0.59285E+00  1734   0.302E+00    0.234E+01
RMM:  10    -0.117324015543E+04    0.23782E+01   -0.26963E+01  1960   0.690E+00    0.156E+01
RMM:  11    -0.117541189654E+04   -0.21717E+01   -0.43330E+00  1823   0.396E+00    0.144E+01
RMM:  12    -0.117632789313E+04   -0.91600E+00   -0.24537E+00  1926   0.277E+00    0.119E+01
RMM:  13    -0.117582361779E+04    0.50428E+00   -0.24870E-01  2034   0.703E-01    0.110E+01
RMM:  14    -0.117339144851E+04    0.24322E+01   -0.29589E+00  1847   0.161E+00    0.753E+00
RMM:  15    -0.117264249575E+04    0.74895E+00   -0.33441E-01  1847   0.122E+00    0.627E+00
RMM:  16    -0.117134814552E+04    0.12944E+01   -0.59890E-01  1956   0.655E-01    0.418E+00
RMM:  17    -0.117079263477E+04    0.55551E+00   -0.17531E-01  1926   0.471E-01    0.352E+00
RMM:  18    -0.117043574870E+04    0.35689E+00   -0.87752E-02  1919   0.298E-01    0.292E+00
RMM:  19    -0.117010495614E+04    0.33079E+00   -0.14222E-01  1923   0.367E-01    0.193E+00
RMM:  20    -0.117012579358E+04   -0.20837E-01   -0.13664E-02  1788   0.202E-01    0.187E+00
RMM:  21    -0.117011593370E+04    0.98599E-02   -0.15038E-01  1886   0.370E-01    0.349E+00
RMM:  22    -0.117005487888E+04    0.61055E-01   -0.25703E-02  1849   0.272E-01    0.194E+00
RMM:  23    -0.117005646910E+04   -0.15902E-02   -0.31729E-02  1871   0.153E-01    0.111E+00
RMM:  24    -0.117006067471E+04   -0.42056E-02   -0.11003E-02  1797   0.142E-01    0.766E-01
RMM:  25    -0.117005881709E+04    0.18576E-02   -0.68875E-03  1818   0.110E-01    0.568E-01
RMM:  26    -0.117005909732E+04   -0.28022E-03   -0.25226E-03  1501   0.806E-02    0.549E-01
RMM:  27    -0.117005550981E+04    0.35875E-02   -0.26322E-03  1628   0.740E-02    0.234E-01
RMM:  28    -0.117005506811E+04    0.44170E-03   -0.11450E-03  1421   0.619E-02    0.126E-01
RMM:  29    -0.117005502368E+04    0.44426E-04   -0.46603E-04  1202   0.532E-02
   1 F= -.11770843E+04 E0= -.11770843E+04  d E =-.117708E+04  mag=     0.9938
       N       E                     dE             d eps       ncg     rms          rms(c)
DAV:   1    -0.117005531419E+04   -0.24608E-03   -0.31916E-01  1800   0.966E-01    0.542E-01
RMM:   2    -0.117005576416E+04   -0.44997E-03   -0.19125E-02  1817   0.152E-01    0.310E-01
RMM:   3    -0.117005568667E+04    0.77486E-04   -0.25370E-03  1418   0.110E-01    0.222E-01
RMM:   4    -0.117005550435E+04    0.18232E-03   -0.83417E-04  1379   0.487E-02    0.159E-01
RMM:   5    -0.117005536609E+04    0.13826E-03   -0.11201E-03  1621   0.660E-02    0.823E-02
RMM:   6    -0.117005542845E+04   -0.62352E-04   -0.23813E-04  1171   0.417E-02
   2 F= -.11770846E+04 E0= -.11770846E+04  d E =-.269402E-03  mag=     0.9994
       N       E                     dE             d eps       ncg     rms          rms(c)
DAV:   1    -0.117005572330E+04   -0.35720E-03   -0.51837E-02  1908   0.390E-01    0.157E-01
RMM:   2    -0.117005582497E+04   -0.10167E-03   -0.25071E-03  1538   0.555E-02    0.101E-01
RMM:   3    -0.117005577419E+04    0.50775E-04   -0.25231E-04  1046   0.515E-02
   3 F= -.11770850E+04 E0= -.11770850E+04  d E =-.668338E-03  mag=     1.0000
