       N       E                     dE             d eps       ncg     rms          rms(c)
DAV:   1     0.481360950809E+04    0.48136E+04   -0.17150E+05  1872   0.903E+02
DAV:   2    -0.766091161236E+02   -0.48902E+04   -0.44432E+04  2520   0.204E+02
DAV:   3    -0.118806874326E+04   -0.11115E+04   -0.11069E+04  2088   0.108E+02
DAV:   4    -0.123322829914E+04   -0.45160E+02   -0.44939E+02  2052   0.286E+01
DAV:   5    -0.123440275458E+04   -0.11745E+01   -0.11723E+01  2376   0.426E+00    0.686E+01
RMM:   6    -0.122024597168E+04    0.14157E+02   -0.10964E+01  1642   0.344E+00    0.523E+01
RMM:   7    -0.119105068401E+04    0.29195E+02   -0.39074E+01  1605   0.682E+00    0.323E+01
RMM:   8    -0.117375549187E+04    0.17295E+02   -0.26845E+01  1597   0.580E+00    0.220E+01
RMM:   9    -0.117017200861E+04    0.35835E+01   -0.26004E+01  1584   0.569E+00    0.122E+01
RMM:  10    -0.117091261345E+04   -0.74060E+00   -0.27396E+00  1679   0.198E+00    0.755E+00
RMM:  11    -0.117071217659E+04    0.20044E+00   -0.14216E-01  1845   0.516E-01    0.602E+00
RMM:  12    -0.117018767029E+04    0.52451E+00   -0.18047E+00  1585   0.145E+00    0.161E+00
RMM:  13    -0.117017021705E+04    0.17453E-01   -0.68978E-02  1679   0.324E-01    0.620E-01
RMM:  14    -0.117016747313E+04    0.27439E-02   -0.21302E-02  1653   0.160E-01    0.355E-01
RMM:  15    -0.117016625004E+04    0.12231E-02   -0.94615E-03  1620   0.106E-01    0.196E-01
RMM:  16    -0.117016598964E+04    0.26039E-03   -0.23830E-03  1616   0.542E-02    0.137E-01
RMM:  17    -0.117016621153E+04   -0.22188E-03   -0.65459E-04  1610   0.302E-02    0.875E-02
RMM:  18    -0.117016646336E+04   -0.25183E-03   -0.48148E-04  1345   0.276E-02    0.818E-02
RMM:  19    -0.117016640878E+04    0.54582E-04   -0.18945E-04  1090   0.170E-02
   1 F= -.11772700E+04 E0= -.11772643E+04  d E =-.117727E+04  mag=     0.1686
       N       E                     dE             d eps       ncg     rms          rms(c)
DAV:   1    -0.117016114844E+04    0.53149E-02   -0.11547E+00  1764   0.164E+00    0.563E-01
RMM:   2    -0.117016649269E+04   -0.53443E-02   -0.62244E-02  1773   0.291E-01    0.508E-01
RMM:   3    -0.117016558445E+04    0.90824E-03   -0.43032E-03  1787   0.688E-02    0.419E-01
RMM:   4    -0.117016470877E+04    0.87568E-03   -0.61811E-03  1588   0.857E-02    0.125E-01
RMM:   5    -0.117016464856E+04    0.60210E-04   -0.19896E-04  1174   0.201E-02
   2 F= -.11772685E+04 E0= -.11772633E+04  d E =0.142913E-02  mag=     0.1588
       N       E                     dE             d eps       ncg     rms          rms(c)
DAV:   1    -0.117016733349E+04   -0.26247E-02   -0.39284E-01  1692   0.953E-01    0.315E-01
RMM:   2    -0.117016887500E+04   -0.15415E-02   -0.19298E-02  1763   0.163E-01    0.279E-01
RMM:   3    -0.117016844686E+04    0.42814E-03   -0.13792E-03  1556   0.400E-02    0.218E-01
RMM:   4    -0.117016812116E+04    0.32570E-03   -0.21557E-03  1585   0.506E-02    0.707E-02
RMM:   5    -0.117016810482E+04    0.16338E-04   -0.64700E-05  1077   0.118E-02
   3 F= -.11772718E+04 E0= -.11772663E+04  d E =-.182850E-02  mag=     0.1714
       N       E                     dE             d eps       ncg     rms          rms(c)
DAV:   1    -0.117016810221E+04    0.18944E-04   -0.32385E-01  1692   0.912E-01    0.234E-01
RMM:   2    -0.117016886566E+04   -0.76345E-03   -0.11421E-02  1740   0.142E-01    0.203E-01
RMM:   3    -0.117016841061E+04    0.45505E-03   -0.92629E-04  1575   0.365E-02    0.153E-01
RMM:   4    -0.117016813784E+04    0.27277E-03   -0.18755E-03  1586   0.465E-02    0.593E-02
RMM:   5    -0.117016811332E+04    0.24516E-04   -0.55571E-05  1074   0.108E-02
   4 F= -.11772719E+04 E0= -.11772667E+04  d E =-.162951E-03  mag=     0.1610
       N       E                     dE             d eps       ncg     rms          rms(c)
DAV:   1    -0.117016878604E+04   -0.64820E-03   -0.73783E-02  1836   0.436E-01    0.108E-01
RMM:   2    -0.117016892868E+04   -0.14264E-03   -0.25114E-03  1737   0.661E-02    0.937E-02
RMM:   3    -0.117016879547E+04    0.13321E-03   -0.21406E-04  1096   0.182E-02    0.691E-02
RMM:   4    -0.117016872668E+04    0.68783E-04   -0.49364E-04  1408   0.244E-02
   5 F= -.11772725E+04 E0= -.11772671E+04  d E =-.702094E-03  mag=     0.1654
