       N       E                     dE             d eps       ncg     rms          rms(c)
DAV:   1     0.508211028036E+04    0.50821E+04   -0.16972E+05  1708   0.993E+02
DAV:   2     0.104926010344E+03   -0.49772E+04   -0.45417E+04  2264   0.226E+02
DAV:   3    -0.116203410088E+04   -0.12670E+04   -0.12520E+04  1880   0.123E+02
DAV:   4    -0.122397329754E+04   -0.61939E+02   -0.61046E+02  1848   0.352E+01
DAV:   5    -0.122545320063E+04   -0.14799E+01   -0.14679E+01  1936   0.502E+00    0.648E+01
RMM:   6    -0.121045199636E+04    0.15001E+02   -0.37485E+01  1445   0.627E+00    0.565E+01
RMM:   7    -0.119819489419E+04    0.12257E+02   -0.60681E+00  1444   0.350E+00    0.472E+01
RMM:   8    -0.116484036475E+04    0.33355E+02   -0.51649E+01  1540   0.926E+00    0.254E+01
RMM:   9    -0.115738354450E+04    0.74568E+01   -0.17698E+01  1446   0.603E+00    0.193E+01
RMM:  10    -0.115708482334E+04    0.29872E+00   -0.14464E+01  1454   0.522E+00    0.103E+01
RMM:  11    -0.115740066170E+04   -0.31584E+00   -0.28327E+00  1451   0.270E+00    0.839E+00
RMM:  12    -0.115726494882E+04    0.13571E+00   -0.21578E+00  1453   0.162E+00    0.720E+00
RMM:  13    -0.115694448854E+04    0.32046E+00   -0.44060E-01  1452   0.956E-01    0.502E+00
RMM:  14    -0.115640307892E+04    0.54141E+00   -0.61053E-01  1461   0.850E-01    0.459E+00
RMM:  15    -0.115645961828E+04   -0.56539E-01   -0.44148E-02  1462   0.332E-01    0.369E+00
RMM:  16    -0.115651444334E+04   -0.54825E-01   -0.13264E-01  1468   0.422E-01    0.111E+00
RMM:  17    -0.115650936852E+04    0.50748E-02   -0.38820E-02  1449   0.267E-01    0.643E-01
RMM:  18    -0.115650775684E+04    0.16117E-02   -0.86649E-03  1309   0.134E-01    0.959E-01
RMM:  19    -0.115650715389E+04    0.60295E-03   -0.10694E-02  1456   0.131E-01    0.450E-01
RMM:  20    -0.115650695563E+04    0.19826E-03   -0.20196E-03   969   0.662E-02
   1 F= -.11637548E+04 E0= -.11637407E+04  d E =-.116375E+04  mag=     0.0511
