       N       E                     dE             d eps       ncg     rms          rms(c)
DAV:   1     0.476368577975E+04    0.47637E+04   -0.17773E+05  1908   0.921E+02
DAV:   2    -0.883286492737E+02   -0.48520E+04   -0.44347E+04  2520   0.208E+02
DAV:   3    -0.119959864122E+04   -0.11113E+04   -0.11068E+04  2124   0.109E+02
DAV:   4    -0.124344934571E+04   -0.43851E+02   -0.43595E+02  2052   0.285E+01
DAV:   5    -0.124459075110E+04   -0.11414E+01   -0.11382E+01  2412   0.430E+00    0.740E+01
RMM:   6    -0.122374469615E+04    0.20846E+02   -0.20106E+01  1776   0.441E+00    0.570E+01
RMM:   7    -0.119827395323E+04    0.25471E+02   -0.29171E+01  1608   0.604E+00    0.388E+01
RMM:   8    -0.117618013542E+04    0.22094E+02   -0.38712E+01  1591   0.704E+00    0.247E+01
RMM:   9    -0.117421650798E+04    0.19636E+01   -0.25879E+01  1595   0.569E+00    0.118E+01
RMM:  10    -0.117519242749E+04   -0.97592E+00   -0.33096E+00  1679   0.219E+00    0.764E+00
RMM:  11    -0.117414193771E+04    0.10505E+01   -0.29188E+00  1610   0.182E+00    0.339E+00
RMM:  12    -0.117398678423E+04    0.15515E+00   -0.33617E-01  1795   0.652E-01    0.911E-01
RMM:  13    -0.117397478361E+04    0.12001E-01   -0.71374E-02  1631   0.324E-01    0.514E-01
RMM:  14    -0.117397298739E+04    0.17962E-02   -0.13057E-02  1819   0.141E-01    0.263E-01
RMM:  15    -0.117397256686E+04    0.42053E-03   -0.46193E-03  1712   0.769E-02    0.154E-01
RMM:  16    -0.117397280588E+04   -0.23902E-03   -0.70511E-04  1638   0.348E-02    0.114E-01
RMM:  17    -0.117397288525E+04   -0.79369E-04   -0.25678E-04  1139   0.222E-02
   1 F= -.11812695E+04 E0= -.11812695E+04  d E =-.118127E+04  mag=     0.9903
       N       E                     dE             d eps       ncg     rms          rms(c)
DAV:   1    -0.117396116876E+04    0.11637E-01   -0.93873E-01  1692   0.153E+00    0.569E-01
RMM:   2    -0.117396893784E+04   -0.77691E-02   -0.91828E-02  1895   0.348E-01    0.553E-01
RMM:   3    -0.117396903595E+04   -0.98111E-04   -0.49784E-03  1754   0.760E-02    0.589E-01
RMM:   4    -0.117396920186E+04   -0.16591E-03   -0.73300E-04  1228   0.219E-02    0.636E-01
RMM:   5    -0.117396842018E+04    0.78168E-03   -0.56902E-03  1586   0.819E-02    0.158E-01
RMM:   6    -0.117396841880E+04    0.13803E-05   -0.27662E-04  1201   0.238E-02
   2 F= -.11812661E+04 E0= -.11812661E+04  d E =0.332520E-02  mag=     1.0003
       N       E                     dE             d eps       ncg     rms          rms(c)
DAV:   1    -0.117397060416E+04   -0.21840E-02   -0.43381E-01  1692   0.104E+00    0.341E-01
RMM:   2    -0.117397388137E+04   -0.32772E-02   -0.40670E-02  1898   0.230E-01    0.367E-01
RMM:   3    -0.117397392200E+04   -0.40636E-04   -0.21133E-03  1381   0.491E-02    0.414E-01
RMM:   4    -0.117397397809E+04   -0.56091E-04   -0.32195E-04  1117   0.163E-02
   3 F= -.11812709E+04 E0= -.11812709E+04  d E =-.145700E-02  mag=     1.0001
