       N       E                     dE             d eps       ncg     rms          rms(c)
DAV:   1     0.501634679668E+04    0.50163E+04   -0.17816E+05  1800   0.994E+02
DAV:   2     0.651754043172E+02   -0.49512E+04   -0.45193E+04  2304   0.228E+02
DAV:   3    -0.118854066625E+04   -0.12537E+04   -0.12407E+04  1920   0.122E+02
DAV:   4    -0.124970429971E+04   -0.61164E+02   -0.60622E+02  1928   0.377E+01
DAV:   5    -0.125157160453E+04   -0.18673E+01   -0.18581E+01  2160   0.656E+00    0.687E+01
RMM:   6    -0.123494584535E+04    0.16626E+02   -0.90970E+00  1519   0.389E+00    0.546E+01
RMM:   7    -0.120120168899E+04    0.33744E+02   -0.60707E+01  1539   0.980E+00    0.351E+01
RMM:   8    -0.119528902719E+04    0.59127E+01   -0.13011E+01  1542   0.543E+00    0.320E+01
RMM:   9    -0.118476296346E+04    0.10526E+02   -0.15248E+01  1529   0.541E+00    0.231E+01
RMM:  10    -0.119215928872E+04   -0.73963E+01   -0.17485E+01  1495   0.550E+00    0.263E+01
RMM:  11    -0.118698612850E+04    0.51732E+01   -0.32646E+00  1680   0.287E+00    0.247E+01
RMM:  12    -0.118362703667E+04    0.33591E+01   -0.11680E+00  1782   0.120E+00    0.115E+01
RMM:  13    -0.118931956213E+04   -0.56925E+01   -0.76608E-01  1695   0.813E-01    0.268E+01
RMM:  14    -0.118443010004E+04    0.48895E+01   -0.67332E-01  1680   0.650E-01    0.134E+01
RMM:  15    -0.118354353676E+04    0.88656E+00   -0.49311E+00  2017   0.180E+00    0.886E+00
RMM:  16    -0.118211514761E+04    0.14284E+01   -0.76474E-01  1600   0.614E-01    0.905E+00
RMM:  17    -0.118247459940E+04   -0.35945E+00   -0.91848E-02  1683   0.277E-01    0.824E+00
RMM:  18    -0.118250819143E+04   -0.33592E-01   -0.17468E-02  1658   0.136E-01    0.741E+00
RMM:  19    -0.118270096209E+04   -0.19277E+00   -0.32886E-02  1596   0.116E-01    0.715E+00
RMM:  20    -0.118318235442E+04   -0.48139E+00   -0.64686E-01  2171   0.469E-01    0.507E+00
RMM:  21    -0.118323054408E+04   -0.48190E-01   -0.22405E-01  2046   0.323E-01    0.294E+00
RMM:  22    -0.118316401600E+04    0.66528E-01   -0.99216E-02  1762   0.244E-01    0.323E+00
RMM:  23    -0.118314812333E+04    0.15893E-01   -0.12839E-02  1676   0.118E-01    0.152E+00
RMM:  24    -0.118315490738E+04   -0.67840E-02   -0.31444E-03  1772   0.583E-02    0.132E+00
RMM:  25    -0.118312544120E+04    0.29466E-01   -0.45769E-03  1717   0.482E-02    0.116E+00
RMM:  26    -0.118312378346E+04    0.16577E-02   -0.27340E-03  1706   0.345E-02    0.402E+00
RMM:  27    -0.118310106007E+04    0.22723E-01   -0.21885E-03  1697   0.488E-02    0.114E+00
RMM:  28    -0.118311973911E+04   -0.18679E-01   -0.26329E-03  1618   0.416E-02    0.106E+00
RMM:  29    -0.118318820159E+04   -0.68462E-01   -0.11423E-02  2218   0.672E-02    0.678E+00
RMM:  30    -0.118312580419E+04    0.62397E-01   -0.22647E-03  1698   0.485E-02    0.507E+00
RMM:  31    -0.118310873187E+04    0.17072E-01   -0.13382E-03  1692   0.189E-02    0.620E-01
RMM:  32    -0.118313237769E+04   -0.23646E-01   -0.10965E-03  1582   0.338E-02    0.124E+00
RMM:  33    -0.118313359792E+04   -0.12202E-02   -0.99389E-04  1634   0.168E-02    0.258E-01
RMM:  34    -0.118313618356E+04   -0.25856E-02   -0.32642E-04  1684   0.157E-02    0.416E-01
RMM:  35    -0.118313601121E+04    0.17235E-03   -0.58485E-05  1604   0.866E-03    0.351E-01
RMM:  36    -0.118313632528E+04   -0.31407E-03   -0.37169E-05  1528   0.569E-03    0.482E-01
RMM:  37    -0.118313598975E+04    0.33553E-03   -0.38753E-05  1073   0.424E-03    0.270E-01
RMM:  38    -0.118313620314E+04   -0.21339E-03   -0.15324E-05  1052   0.320E-03    0.143E-01
RMM:  39    -0.118313641398E+04   -0.21084E-03   -0.10809E-05  1010   0.301E-03    0.121E-01
RMM:  40    -0.118313644033E+04   -0.26347E-04   -0.21882E-06   970   0.186E-03    0.982E-02
RMM:  41    -0.118313644713E+04   -0.68069E-05   -0.81587E-07   965   0.142E-03    0.569E-02
RMM:  42    -0.118313647179E+04   -0.24657E-04   -0.10055E-06   964   0.124E-03    0.220E-02
RMM:  43    -0.118313649829E+04   -0.26496E-04   -0.73877E-07   913   0.107E-03    0.339E-02
RMM:  44    -0.118313649882E+04   -0.53084E-06   -0.21006E-07   771   0.591E-04
   1 F= -.11901841E+04 E0= -.11901639E+04  d E =-.119018E+04  mag=    -0.7731
       N       E                     dE             d eps       ncg     rms          rms(c)
DAV:   1    -0.118320891553E+04   -0.72417E-01   -0.10413E+00  1652   0.687E-01    0.660E+00
RMM:   2    -0.118347820675E+04   -0.26929E+00   -0.34950E-01  1482   0.232E-01    0.120E+01
RMM:   3    -0.118317907363E+04    0.29913E+00   -0.92252E-02  1486   0.164E-01    0.262E+00
RMM:   4    -0.118319388687E+04   -0.14813E-01   -0.28997E-02  1524   0.789E-02    0.246E+00
RMM:   5    -0.118319873786E+04   -0.48510E-02   -0.92298E-04  1764   0.282E-02    0.242E+00
RMM:   6    -0.118318527578E+04    0.13462E-01   -0.43085E-03  1499   0.297E-02    0.225E+00
RMM:   7    -0.118315179006E+04    0.33486E-01   -0.12945E-02  1530   0.473E-02    0.832E-01
RMM:   8    -0.118315553412E+04   -0.37441E-02   -0.39625E-04  1693   0.234E-02    0.797E-01
RMM:   9    -0.118316454937E+04   -0.90153E-02   -0.11417E-03  1571   0.156E-02    0.348E+00
RMM:  10    -0.118315591520E+04    0.86342E-02   -0.41108E-03  1541   0.352E-02    0.194E+00
RMM:  11    -0.118315734196E+04   -0.14268E-02   -0.79114E-04  1553   0.320E-02    0.139E+00
RMM:  12    -0.118315551744E+04    0.18245E-02   -0.39005E-04  1607   0.170E-02    0.143E+00
RMM:  13    -0.118315530787E+04    0.20957E-03   -0.49213E-04  1550   0.227E-02    0.292E-01
RMM:  14    -0.118315676375E+04   -0.14559E-02   -0.63633E-05  1505   0.825E-03    0.733E-01
RMM:  15    -0.118315565974E+04    0.11040E-02   -0.44319E-05  1460   0.618E-03    0.254E-01
RMM:  16    -0.118315675086E+04   -0.10911E-02   -0.65039E-05  1115   0.621E-03    0.231E-01
RMM:  17    -0.118315683775E+04   -0.86892E-04   -0.79819E-06  1109   0.333E-03    0.167E-01
RMM:  18    -0.118315690456E+04   -0.66810E-04   -0.59854E-06  1006   0.287E-03    0.405E-02
RMM:  19    -0.118315707694E+04   -0.17238E-03   -0.99410E-06   976   0.283E-03    0.153E-02
RMM:  20    -0.118315707418E+04    0.27523E-05   -0.80194E-07   936   0.112E-03    0.299E-02
RMM:  21    -0.118315706427E+04    0.99160E-05   -0.26926E-07   906   0.869E-04    0.104E-02
RMM:  22    -0.118315707280E+04   -0.85293E-05   -0.17598E-07   767   0.598E-04    0.271E-03
RMM:  23    -0.118315707818E+04   -0.53881E-05   -0.13950E-07   675   0.524E-04    0.170E-03
RMM:  24    -0.118315707896E+04   -0.77209E-06   -0.21939E-08   439   0.334E-04
   2 F= -.11902044E+04 E0= -.11901840E+04  d E =-.202869E-01  mag=    -0.7726
       N       E                     dE             d eps       ncg     rms          rms(c)
DAV:   1    -0.118316191654E+04   -0.48384E-02   -0.69495E-02  1644   0.178E-01    0.224E+00
RMM:   2    -0.118323083430E+04   -0.68918E-01   -0.53649E-02  1480   0.827E-02    0.259E+00
RMM:   3    -0.118318646630E+04    0.44368E-01   -0.81293E-03  1480   0.509E-02    0.224E+00
RMM:   4    -0.118316152023E+04    0.24946E-01   -0.76687E-03  1493   0.330E-02    0.200E+00
RMM:   5    -0.118316295304E+04   -0.14328E-02   -0.27140E-04  1606   0.118E-02    0.204E+00
RMM:   6    -0.118315539501E+04    0.75580E-02   -0.77014E-04  1499   0.943E-03    0.160E+00
RMM:   7    -0.118315285606E+04    0.25390E-02   -0.41965E-04  1482   0.916E-03    0.335E-01
RMM:   8    -0.118315775328E+04   -0.48972E-02   -0.29339E-04  1240   0.130E-02    0.802E-01
RMM:   9    -0.118315673081E+04    0.10225E-02   -0.35166E-05  1369   0.528E-03    0.127E-01
RMM:  10    -0.118315796047E+04   -0.12297E-02   -0.64314E-05  1182   0.768E-03    0.347E-01
RMM:  11    -0.118315786061E+04    0.99858E-04   -0.50107E-06  1005   0.258E-03    0.243E-01
RMM:  12    -0.118315785985E+04    0.75580E-06   -0.95954E-06  1008   0.285E-03
   3 F= -.11902051E+04 E0= -.11901846E+04  d E =-.209933E-01  mag=    -0.7722
       N       E                     dE             d eps       ncg     rms          rms(c)
DAV:   1    -0.118315830800E+04   -0.44739E-03   -0.22859E-03  1608   0.323E-02    0.476E-01
RMM:   2    -0.118316872237E+04   -0.10414E-01   -0.23158E-03  1484   0.176E-02    0.205E+00
RMM:   3    -0.118315391954E+04    0.14803E-01   -0.11098E-03  1470   0.216E-02    0.604E-01
RMM:   4    -0.118315667269E+04   -0.27532E-02   -0.36459E-04  1284   0.103E-02    0.150E-01
RMM:   5    -0.118315788840E+04   -0.12157E-02   -0.17107E-04  1141   0.813E-03    0.136E-01
RMM:   6    -0.118315807622E+04   -0.18782E-03   -0.30863E-05   974   0.471E-03    0.199E-01
RMM:   7    -0.118315800062E+04    0.75600E-04   -0.16257E-05   830   0.261E-03    0.202E-01
RMM:   8    -0.118315795414E+04    0.46478E-04   -0.19221E-05   949   0.179E-03    0.184E-01
RMM:   9    -0.118315803616E+04   -0.82011E-04   -0.20534E-05   966   0.382E-03    0.274E-02
RMM:  10    -0.118315810656E+04   -0.70405E-04   -0.26634E-06   829   0.119E-03    0.533E-02
RMM:  11    -0.118315812395E+04   -0.17391E-04   -0.29034E-06   912   0.938E-04    0.999E-02
RMM:  12    -0.118315809746E+04    0.26486E-04   -0.40437E-06   832   0.172E-03    0.274E-02
RMM:  13    -0.118315812153E+04   -0.24066E-04   -0.79779E-07   510   0.726E-04    0.130E-02
RMM:  14    -0.118315813245E+04   -0.10922E-04   -0.21366E-07   494   0.535E-04    0.392E-03
RMM:  15    -0.118315813690E+04   -0.44490E-05   -0.91307E-08   443   0.401E-04    0.426E-03
RMM:  16    -0.118315813825E+04   -0.13534E-05   -0.37262E-08   425   0.353E-04    0.116E-03
RMM:  17    -0.118315813852E+04   -0.26687E-06   -0.81451E-09   335   0.259E-04
   4 F= -.11902053E+04 E0= -.11901850E+04  d E =-.212585E-01  mag=    -0.7717
       N       E                     dE             d eps       ncg     rms          rms(c)
DAV:   1    -0.118315817218E+04   -0.33924E-04   -0.50483E-04  1728   0.152E-02    0.163E-01
RMM:   2    -0.118316026932E+04   -0.20971E-02   -0.27807E-04  1366   0.631E-03    0.167E+00
RMM:   3    -0.118315530915E+04    0.49602E-02   -0.30396E-04  1266   0.142E-02    0.600E-02
RMM:   4    -0.118315786164E+04   -0.25525E-02   -0.13883E-04  1103   0.940E-03    0.337E-02
RMM:   5    -0.118315810565E+04   -0.24401E-03   -0.26583E-05   966   0.434E-03    0.331E-02
RMM:   6    -0.118315814081E+04   -0.35159E-04   -0.59393E-06   833   0.159E-03    0.840E-03
RMM:   7    -0.118315814645E+04   -0.56425E-05   -0.75759E-07   526   0.573E-04    0.909E-03
RMM:   8    -0.118315814363E+04    0.28206E-05   -0.12323E-07   454   0.414E-04    0.664E-03
RMM:   9    -0.118315814607E+04   -0.24393E-05   -0.31269E-07   826   0.561E-04    0.153E-02
RMM:  10    -0.118315814289E+04    0.31790E-05   -0.18716E-07   643   0.538E-04    0.140E-02
RMM:  11    -0.118315814473E+04   -0.18410E-05   -0.27232E-07   651   0.469E-04    0.140E-03
RMM:  12    -0.118315814808E+04   -0.33474E-05   -0.58549E-08   407   0.377E-04    0.301E-03
RMM:  13    -0.118315814818E+04   -0.10300E-06   -0.13118E-08   359   0.317E-04
   5 F= -.11902054E+04 E0= -.11901850E+04  d E =-.212745E-01  mag=    -0.7718
       N       E                     dE             d eps       ncg     rms          rms(c)
DAV:   1    -0.118315815305E+04   -0.49701E-05   -0.11112E-04  1648   0.710E-03    0.758E-02
RMM:   2    -0.118315858164E+04   -0.42859E-03   -0.60218E-05  1046   0.298E-03    0.736E-01
RMM:   3    -0.118315706934E+04    0.15123E-02   -0.88668E-05  1067   0.754E-03    0.276E-02
RMM:   4    -0.118315805797E+04   -0.98863E-03   -0.51672E-05   962   0.509E-03    0.233E-02
RMM:   5    -0.118315812657E+04   -0.68594E-04   -0.69586E-06   791   0.210E-03    0.107E-02
RMM:   6    -0.118315814355E+04   -0.16985E-04   -0.13393E-06   584   0.775E-04    0.854E-03
RMM:   7    -0.118315814434E+04   -0.78931E-06   -0.29533E-07   377   0.384E-04    0.650E-03
RMM:   8    -0.118315814653E+04   -0.21895E-05   -0.51256E-08   344   0.338E-04    0.122E-02
RMM:   9    -0.118315814404E+04    0.24968E-05   -0.12513E-07   518   0.432E-04    0.488E-03
RMM:  10    -0.118315814569E+04   -0.16514E-05   -0.47841E-08   456   0.389E-04    0.827E-03
RMM:  11    -0.118315814733E+04   -0.16413E-05   -0.10904E-07   515   0.428E-04    0.180E-03
RMM:  12    -0.118315814815E+04   -0.82044E-06   -0.19986E-08   315   0.298E-04
   6 F= -.11902054E+04 E0= -.11901850E+04  d E =-.212774E-01  mag=    -0.7718
