       N       E                     dE             d eps       ncg     rms          rms(c)
DAV:   1     0.499695352281E+04    0.49970E+04   -0.17073E+05  1800   0.913E+02
DAV:   2    -0.324353909713E+02   -0.50294E+04   -0.45819E+04  2520   0.210E+02
DAV:   3    -0.119073660502E+04   -0.11583E+04   -0.11530E+04  2196   0.111E+02
DAV:   4    -0.123580159095E+04   -0.45065E+02   -0.44824E+02  2052   0.285E+01
DAV:   5    -0.123692434280E+04   -0.11228E+01   -0.11195E+01  2232   0.415E+00    0.688E+01
RMM:   6    -0.121812030572E+04    0.18804E+02   -0.29921E+01  1584   0.516E+00    0.587E+01
RMM:   7    -0.120400610834E+04    0.14114E+02   -0.69528E+00  1584   0.295E+00    0.451E+01
RMM:   8    -0.118295380291E+04    0.21052E+02   -0.19395E+01  1584   0.512E+00    0.316E+01
RMM:   9    -0.116729756123E+04    0.15656E+02   -0.29213E+01  1584   0.621E+00    0.206E+01
RMM:  10    -0.116827291640E+04   -0.97536E+00   -0.22203E+01  1584   0.533E+00    0.916E+00
RMM:  11    -0.116769271811E+04    0.58020E+00   -0.61350E-01  1620   0.106E+00    0.652E+00
RMM:  12    -0.116725200441E+04    0.44071E+00   -0.67083E-01  1585   0.882E-01    0.430E+00
RMM:  13    -0.116703082188E+04    0.22118E+00   -0.58264E-01  1584   0.866E-01    0.177E+00
RMM:  14    -0.116701312961E+04    0.17692E-01   -0.56475E-02  1592   0.269E-01    0.117E+00
RMM:  15    -0.116701386532E+04   -0.73571E-03   -0.30440E-02  1607   0.180E-01    0.648E-01
RMM:  16    -0.116701263061E+04    0.12347E-02   -0.56728E-03  1585   0.864E-02    0.413E-01
RMM:  17    -0.116701224558E+04    0.38502E-03   -0.34633E-03  1587   0.664E-02    0.193E-01
RMM:  18    -0.116701239239E+04   -0.14681E-03   -0.68324E-04  1350   0.291E-02    0.148E-01
RMM:  19    -0.116701261773E+04   -0.22534E-03   -0.29337E-04  1094   0.200E-02    0.138E-01
RMM:  20    -0.116701285826E+04   -0.24052E-03   -0.22152E-04  1052   0.156E-02    0.131E-01
RMM:  21    -0.116701323215E+04   -0.37390E-03   -0.22613E-03  1240   0.415E-02    0.114E-01
RMM:  22    -0.116701338855E+04   -0.15640E-03   -0.38685E-04  1071   0.179E-02    0.861E-02
RMM:  23    -0.116701336701E+04    0.21541E-04   -0.96937E-04  1114   0.265E-02
   1 F= -.11743037E+04 E0= -.11743037E+04  d E =-.117430E+04  mag=     0.9989
       N       E                     dE             d eps       ncg     rms          rms(c)
DAV:   1    -0.116700742386E+04    0.59647E-02   -0.16055E+00  1692   0.190E+00    0.606E-01
RMM:   2    -0.116701061646E+04   -0.31926E-02   -0.38683E-02  1586   0.263E-01    0.595E-01
RMM:   3    -0.116701056797E+04    0.48486E-04   -0.22077E-03  1629   0.545E-02    0.562E-01
RMM:   4    -0.116700996735E+04    0.60063E-03   -0.44365E-03  1590   0.777E-02    0.219E-01
RMM:   5    -0.116701005539E+04   -0.88045E-04   -0.36090E-04  1175   0.243E-02
   2 F= -.11743013E+04 E0= -.11743013E+04  d E =0.236116E-02  mag=     0.9999
       N       E                     dE             d eps       ncg     rms          rms(c)
DAV:   1    -0.116701449733E+04   -0.45300E-02   -0.60514E-01  1800   0.117E+00    0.363E-01
RMM:   2    -0.116701543346E+04   -0.93613E-03   -0.13150E-02  1587   0.156E-01    0.357E-01
RMM:   3    -0.116701535224E+04    0.81222E-04   -0.70456E-04  1277   0.310E-02
   3 F= -.11743061E+04 E0= -.11743061E+04  d E =-.235764E-02  mag=     1.0000
       N       E                     dE             d eps       ncg     rms          rms(c)
DAV:   1    -0.116701209823E+04    0.33352E-02   -0.99566E-01  1692   0.146E+00    0.447E-01
RMM:   2    -0.116701391881E+04   -0.18206E-02   -0.20309E-02  1584   0.181E-01    0.394E-01
RMM:   3    -0.116701392406E+04   -0.52468E-05   -0.10877E-03  1364   0.399E-02    0.334E-01
RMM:   4    -0.116701378971E+04    0.13435E-03   -0.10811E-03  1536   0.393E-02    0.180E-01
RMM:   5    -0.116701388449E+04   -0.94777E-04   -0.23078E-04  1093   0.195E-02
   4 F= -.11743046E+04 E0= -.11743046E+04  d E =0.148928E-02  mag=     1.0000
       N       E                     dE             d eps       ncg     rms          rms(c)
DAV:   1    -0.116701511979E+04   -0.13301E-02   -0.46176E-01  1728   0.994E-01    0.359E-01
RMM:   2    -0.116701575365E+04   -0.63385E-03   -0.87424E-03  1584   0.124E-01    0.334E-01
RMM:   3    -0.116701568634E+04    0.67305E-04   -0.48753E-04  1214   0.273E-02
   5 F= -.11743064E+04 E0= -.11743064E+04  d E =-.328502E-03  mag=     1.0000
