       N       E                     dE             d eps       ncg     rms          rms(c)
DAV:   1     0.488412956591E+04    0.48841E+04   -0.17327E+05  1872   0.909E+02
DAV:   2    -0.554342703306E+02   -0.49396E+04   -0.44988E+04  2520   0.207E+02
DAV:   3    -0.118946421621E+04   -0.11340E+04   -0.11289E+04  2088   0.109E+02
DAV:   4    -0.123584336124E+04   -0.46379E+02   -0.46141E+02  2052   0.292E+01
DAV:   5    -0.123703915273E+04   -0.11958E+01   -0.11927E+01  2340   0.434E+00    0.713E+01
RMM:   6    -0.122093491249E+04    0.16104E+02   -0.26213E+01  1627   0.519E+00    0.516E+01
RMM:   7    -0.120730778993E+04    0.13627E+02   -0.86121E+00  1588   0.341E+00    0.425E+01
RMM:   8    -0.118385456353E+04    0.23453E+02   -0.24736E+01  1588   0.580E+00    0.288E+01
RMM:   9    -0.117110581711E+04    0.12749E+02   -0.26551E+01  1587   0.595E+00    0.183E+01
RMM:  10    -0.117151864187E+04   -0.41282E+00   -0.17499E+01  1585   0.476E+00    0.853E+00
RMM:  11    -0.117130040820E+04    0.21823E+00   -0.77577E-01  1650   0.112E+00    0.604E+00
RMM:  12    -0.117085929481E+04    0.44111E+00   -0.16694E+00  1587   0.142E+00    0.384E+00
RMM:  13    -0.117065043275E+04    0.20886E+00   -0.26279E-01  1653   0.488E-01    0.219E+00
RMM:  14    -0.117065207062E+04   -0.16379E-02   -0.32917E-02  1595   0.210E-01    0.150E+00
RMM:  15    -0.117066687306E+04   -0.14802E-01   -0.36776E-02  1603   0.219E-01    0.351E-01
RMM:  16    -0.117066843093E+04   -0.15579E-02   -0.89223E-03  1625   0.104E-01    0.338E-01
RMM:  17    -0.117066781398E+04    0.61695E-03   -0.12066E-03  1528   0.422E-02    0.246E-01
RMM:  18    -0.117066775764E+04    0.56335E-04   -0.58173E-04  1345   0.274E-02
   1 F= -.11776842E+04 E0= -.11776842E+04  d E =-.117768E+04  mag=     3.0060
       N       E                     dE             d eps       ncg     rms          rms(c)
DAV:   1    -0.117066522163E+04    0.25923E-02   -0.47743E-01  1764   0.127E+00    0.240E-01
RMM:   2    -0.117066739066E+04   -0.21690E-02   -0.27282E-02  1619   0.206E-01    0.218E-01
RMM:   3    -0.117066700114E+04    0.38952E-03   -0.15078E-03  1576   0.484E-02    0.213E-01
RMM:   4    -0.117066666280E+04    0.33834E-03   -0.59738E-04  1486   0.297E-02    0.142E-01
RMM:   5    -0.117066645351E+04    0.20929E-03   -0.79030E-04  1556   0.331E-02    0.793E-02
RMM:   6    -0.117066646629E+04   -0.12781E-04   -0.16768E-04  1067   0.177E-02
   2 F= -.11776833E+04 E0= -.11776833E+04  d E =0.864970E-03  mag=     3.0000
       N       E                     dE             d eps       ncg     rms          rms(c)
DAV:   1    -0.117066799062E+04   -0.15371E-02   -0.17441E-01  1764   0.767E-01    0.123E-01
RMM:   2    -0.117066873116E+04   -0.74054E-03   -0.91541E-03  1610   0.119E-01    0.122E-01
RMM:   3    -0.117066857510E+04    0.15606E-03   -0.43154E-04  1174   0.265E-02    0.121E-01
RMM:   4    -0.117066848962E+04    0.85475E-04   -0.10832E-04  1044   0.155E-02
   3 F= -.11776851E+04 E0= -.11776851E+04  d E =-.900915E-03  mag=     3.0000
