       N       E                     dE             d eps       ncg     rms          rms(c)
DAV:   1     0.485955699128E+04    0.48596E+04   -0.17157E+05  1872   0.905E+02
DAV:   2    -0.573372651924E+02   -0.49169E+04   -0.44709E+04  2520   0.205E+02
DAV:   3    -0.119021932118E+04   -0.11329E+04   -0.11288E+04  2160   0.109E+02
DAV:   4    -0.123488183744E+04   -0.44663E+02   -0.44461E+02  2052   0.284E+01
DAV:   5    -0.123601841414E+04   -0.11366E+01   -0.11345E+01  2376   0.419E+00    0.811E+01
RMM:   6    -0.122370723006E+04    0.12311E+02   -0.69223E+00  1584   0.304E+00    0.716E+01
RMM:   7    -0.117766905824E+04    0.46038E+02   -0.83019E+01  1584   0.103E+01    0.489E+01
RMM:   8    -0.117331072027E+04    0.43583E+01   -0.56304E+01  1584   0.846E+00    0.212E+01
RMM:   9    -0.117568114820E+04   -0.23704E+01   -0.75850E+00  1590   0.321E+00    0.122E+01
RMM:  10    -0.117269774422E+04    0.29834E+01   -0.55307E+00  1586   0.256E+00    0.474E+00
RMM:  11    -0.117226862410E+04    0.42912E+00   -0.10308E+00  1584   0.113E+00    0.239E+00
RMM:  12    -0.117219669057E+04    0.71934E-01   -0.25515E-01  1584   0.559E-01    0.113E+00
RMM:  13    -0.117217231617E+04    0.24374E-01   -0.81629E-02  1590   0.318E-01    0.346E-01
RMM:  14    -0.117217233029E+04   -0.14124E-04   -0.62148E-03  1631   0.937E-02    0.390E-01
RMM:  15    -0.117217314133E+04   -0.81103E-03   -0.19381E-03  1566   0.461E-02    0.254E-01
RMM:  16    -0.117217244687E+04    0.69446E-03   -0.33161E-03  1584   0.621E-02    0.187E-01
RMM:  17    -0.117217254779E+04   -0.10092E-03   -0.19382E-04  1097   0.194E-02    0.118E-01
RMM:  18    -0.117217253015E+04    0.17638E-04   -0.15727E-04  1060   0.152E-02
   1 F= -.11794833E+04 E0= -.11794701E+04  d E =-.117948E+04  mag=    -0.2889
       N       E                     dE             d eps       ncg     rms          rms(c)
DAV:   1    -0.117217034464E+04    0.22031E-02   -0.53832E-01  1692   0.118E+00    0.650E-01
RMM:   2    -0.117217158126E+04   -0.12366E-02   -0.16699E-02  1585   0.178E-01    0.631E-01
RMM:   3    -0.117217129342E+04    0.28784E-03   -0.10157E-03  1530   0.398E-02    0.543E-01
RMM:   4    -0.117217099240E+04    0.30102E-03   -0.38365E-03  1585   0.660E-02    0.118E-01
RMM:   5    -0.117217090182E+04    0.90580E-04   -0.10112E-04  1062   0.146E-02
   2 F= -.11794822E+04 E0= -.11794691E+04  d E =0.104898E-02  mag=    -0.2946
       N       E                     dE             d eps       ncg     rms          rms(c)
DAV:   1    -0.117217311464E+04   -0.21222E-02   -0.17799E-01  1656   0.677E-01    0.355E-01
RMM:   2    -0.117217337847E+04   -0.26383E-03   -0.42433E-03  1584   0.932E-02    0.325E-01
RMM:   3    -0.117217313904E+04    0.23943E-03   -0.41583E-04  1258   0.261E-02    0.216E-01
RMM:   4    -0.117217310146E+04    0.37586E-04   -0.93380E-04  1553   0.340E-02
   3 F= -.11794841E+04 E0= -.11794710E+04  d E =-.812594E-03  mag=    -0.2962
