       N       E                     dE             d eps       ncg     rms          rms(c)
DAV:   1     0.498594110438E+04    0.49859E+04   -0.17170E+05  1836   0.915E+02
DAV:   2    -0.238550931074E+02   -0.50098E+04   -0.45707E+04  2520   0.209E+02
DAV:   3    -0.118798881531E+04   -0.11641E+04   -0.11586E+04  2088   0.111E+02
DAV:   4    -0.123555879605E+04   -0.47570E+02   -0.47288E+02  2052   0.296E+01
DAV:   5    -0.123677960176E+04   -0.12208E+01   -0.12166E+01  2304   0.434E+00    0.698E+01
RMM:   6    -0.121756116157E+04    0.19218E+02   -0.31997E+01  1584   0.516E+00    0.621E+01
RMM:   7    -0.120493245400E+04    0.12629E+02   -0.54038E+00  1584   0.260E+00    0.472E+01
RMM:   8    -0.118373269056E+04    0.21200E+02   -0.21009E+01  1584   0.532E+00    0.367E+01
RMM:   9    -0.117786727470E+04    0.58654E+01   -0.65415E+00  1585   0.273E+00    0.302E+01
RMM:  10    -0.116733142373E+04    0.10536E+02   -0.18306E+01  1584   0.489E+00    0.208E+01
RMM:  11    -0.116800455973E+04   -0.67314E+00   -0.17653E+01  1584   0.470E+00    0.165E+01
RMM:  12    -0.116763367147E+04    0.37089E+00   -0.11449E+00  1637   0.109E+00    0.696E+00
RMM:  13    -0.116702557272E+04    0.60810E+00   -0.84441E-01  1584   0.983E-01    0.429E+00
RMM:  14    -0.116666426586E+04    0.36131E+00   -0.73114E-01  1584   0.949E-01    0.253E+00
RMM:  15    -0.116664505574E+04    0.19210E-01   -0.46305E-02  1597   0.261E-01    0.230E+00
RMM:  16    -0.116667809070E+04   -0.33035E-01   -0.11176E-02  1586   0.119E-01    0.235E+00
RMM:  17    -0.116661767470E+04    0.60416E-01   -0.20639E-02  1584   0.133E-01    0.179E+00
RMM:  18    -0.116661134527E+04    0.63294E-02   -0.21909E-03  1390   0.356E-02    0.169E+00
RMM:  19    -0.116660122139E+04    0.10124E-01   -0.90204E-04  1224   0.226E-02    0.159E+00
RMM:  20    -0.116655646033E+04    0.44761E-01   -0.19178E-02  1558   0.744E-02    0.941E-01
RMM:  21    -0.116655623314E+04    0.22719E-03   -0.17211E-03  1131   0.185E-02    0.901E-01
RMM:  22    -0.116655594876E+04    0.28438E-03   -0.57949E-05  1052   0.794E-03    0.893E-01
RMM:  23    -0.116655691083E+04   -0.96207E-03   -0.23654E-05   914   0.516E-03    0.912E-01
RMM:  24    -0.116654110825E+04    0.15803E-01   -0.72869E-03  1377   0.420E-02    0.456E-01
RMM:  25    -0.116654265698E+04   -0.15487E-02   -0.26888E-04  1041   0.114E-02    0.501E-01
RMM:  26    -0.116653791505E+04    0.47419E-02   -0.38491E-03  1317   0.347E-02    0.225E-01
RMM:  27    -0.116653732615E+04    0.58890E-03   -0.38665E-03  1363   0.347E-02    0.264E-01
RMM:  28    -0.116653719328E+04    0.13286E-03   -0.38304E-04  1055   0.122E-02    0.261E-01
RMM:  29    -0.116653757458E+04   -0.38130E-03   -0.23545E-04  1110   0.129E-02    0.343E-01
RMM:  30    -0.116653756221E+04    0.12370E-04   -0.45598E-05  1005   0.650E-03
   1 F= -.11738262E+04 E0= -.11738262E+04  d E =-.117383E+04  mag=     0.0029
       N       E                     dE             d eps       ncg     rms          rms(c)
DAV:   1    -0.116653615867E+04    0.14159E-02   -0.16227E+00  1584   0.185E+00    0.876E-01
RMM:   2    -0.116653607713E+04    0.81544E-04   -0.44890E-02  1584   0.258E-01    0.842E-01
RMM:   3    -0.116653592779E+04    0.14934E-03   -0.26346E-03  1535   0.573E-02    0.764E-01
RMM:   4    -0.116653398453E+04    0.19433E-02   -0.48601E-03  1584   0.794E-02    0.320E-01
RMM:   5    -0.116653414151E+04   -0.15697E-03   -0.30983E-03  1584   0.635E-02    0.969E-02
RMM:   6    -0.116653404009E+04    0.10142E-03   -0.84411E-05  1036   0.133E-02    0.866E-02
RMM:   7    -0.116653399071E+04    0.49381E-04   -0.10946E-04  1020   0.119E-02
   2 F= -.11738238E+04 E0= -.11738238E+04  d E =0.243001E-02  mag=    -0.0003
       N       E                     dE             d eps       ncg     rms          rms(c)
DAV:   1    -0.116653911724E+04   -0.50771E-02   -0.62236E-01  1800   0.114E+00    0.446E-01
RMM:   2    -0.116653958422E+04   -0.46698E-03   -0.13446E-02  1585   0.152E-01    0.450E-01
RMM:   3    -0.116653940620E+04    0.17802E-03   -0.76226E-04  1293   0.316E-02    0.435E-01
RMM:   4    -0.116653899998E+04    0.40622E-03   -0.32472E-03  1584   0.626E-02    0.292E-01
RMM:   5    -0.116653984780E+04   -0.84782E-03   -0.66385E-04  1134   0.243E-02    0.322E-01
RMM:   6    -0.116653679196E+04    0.30558E-02   -0.48620E-03  1584   0.689E-02    0.139E-01
RMM:   7    -0.116653778445E+04   -0.99249E-03   -0.41672E-04  1048   0.181E-02    0.107E-01
RMM:   8    -0.116653794244E+04   -0.15799E-03   -0.47288E-04  1318   0.232E-02    0.747E-02
RMM:   9    -0.116653785580E+04    0.86638E-04   -0.22404E-04  1036   0.161E-02
   3 F= -.11738270E+04 E0= -.11738269E+04  d E =-.733967E-03  mag=     0.0000
