       N       E                     dE             d eps       ncg     rms          rms(c)
DAV:   1     0.499624266892E+04    0.49962E+04   -0.17843E+05  1872   0.932E+02
DAV:   2    -0.297665321323E+02   -0.50260E+04   -0.46134E+04  2520   0.214E+02
DAV:   3    -0.118653813644E+04   -0.11568E+04   -0.11513E+04  2052   0.115E+02
DAV:   4    -0.124405248424E+04   -0.57514E+02   -0.57142E+02  2052   0.347E+01
DAV:   5    -0.124672606125E+04   -0.26736E+01   -0.26675E+01  2520   0.689E+00    0.617E+01
RMM:   6    -0.123416411721E+04    0.12562E+02   -0.69332E+00  1646   0.332E+00    0.508E+01
RMM:   7    -0.119125679522E+04    0.42907E+02   -0.70557E+01  1872   0.111E+01    0.290E+01
RMM:   8    -0.118455830574E+04    0.66985E+01   -0.16571E+01  1833   0.863E+00    0.184E+01
RMM:   9    -0.118334594619E+04    0.12124E+01   -0.26878E+01  1805   0.731E+00    0.970E+00
RMM:  10    -0.118348120429E+04   -0.13526E+00   -0.30786E+00  1838   0.619E+00    0.799E+00
RMM:  11    -0.118272909940E+04    0.75210E+00   -0.27445E+00  1881   0.215E+00    0.307E+00
RMM:  12    -0.118268822789E+04    0.40872E-01   -0.18600E-01  1862   0.136E+00    0.192E+00
RMM:  13    -0.118260593164E+04    0.82296E-01   -0.26821E-01  1883   0.651E-01    0.104E+00
RMM:  14    -0.118260654645E+04   -0.61481E-03   -0.59878E-02  1778   0.521E-01    0.784E-01
RMM:  15    -0.118260462867E+04    0.19178E-02   -0.89890E-03  1843   0.228E-01    0.605E-01
RMM:  16    -0.118260463403E+04   -0.53548E-05   -0.50639E-03  1806   0.103E-01    0.486E-01
RMM:  17    -0.118260477189E+04   -0.13786E-03   -0.14572E-03  1646   0.856E-02    0.341E-01
RMM:  18    -0.118260485176E+04   -0.79869E-04   -0.41991E-04  1275   0.551E-02
   1 F= -.11897009E+04 E0= -.11897009E+04  d E =-.118970E+04  mag=    -0.0007
       N       E                     dE             d eps       ncg     rms          rms(c)
DAV:   1    -0.118260395591E+04    0.81598E-03   -0.41785E-01  1800   0.110E+00    0.227E-01
RMM:   2    -0.118260477383E+04   -0.81792E-03   -0.12099E-02  1900   0.175E-01    0.209E-01
RMM:   3    -0.118260449706E+04    0.27677E-03   -0.10703E-03  1486   0.959E-02    0.180E-01
RMM:   4    -0.118260408957E+04    0.40749E-03   -0.26082E-03  1814   0.756E-02    0.689E-02
RMM:   5    -0.118260410532E+04   -0.15752E-04   -0.32426E-04  1247   0.681E-02
   2 F= -.11897000E+04 E0= -.11897000E+04  d E =0.812801E-03  mag=    -0.0001
       N       E                     dE             d eps       ncg     rms          rms(c)
DAV:   1    -0.118260589256E+04   -0.18030E-02   -0.15525E-01  1872   0.666E-01    0.116E-01
RMM:   2    -0.118260601759E+04   -0.12503E-03   -0.34189E-03  1813   0.105E-01    0.107E-01
RMM:   3    -0.118260586713E+04    0.15045E-03   -0.35720E-04  1264   0.651E-02    0.919E-02
RMM:   4    -0.118260557022E+04    0.29691E-03   -0.10687E-03  1618   0.460E-02    0.301E-02
RMM:   5    -0.118260559071E+04   -0.20492E-04   -0.21636E-04  1128   0.698E-02
   3 F= -.11897016E+04 E0= -.11897016E+04  d E =-.711602E-03  mag=     0.0000
