       N       E                     dE             d eps       ncg     rms          rms(c)
DAV:   1     0.473584668482E+04    0.47358E+04   -0.17376E+05  1764   0.992E+02
DAV:   2    -0.142139816078E+02   -0.47501E+04   -0.43596E+04  2232   0.218E+02
DAV:   3    -0.117728269269E+04   -0.11631E+04   -0.11563E+04  1944   0.116E+02
DAV:   4    -0.122915987788E+04   -0.51877E+02   -0.51450E+02  1872   0.322E+01
DAV:   5    -0.123058976146E+04   -0.14299E+01   -0.14263E+01  2268   0.478E+00    0.702E+01
RMM:   6    -0.121743311894E+04    0.13157E+02   -0.74493E+00  1447   0.335E+00    0.594E+01
RMM:   7    -0.117168994161E+04    0.45743E+02   -0.81510E+01  1448   0.109E+01    0.339E+01
RMM:   8    -0.116459331366E+04    0.70966E+01   -0.42253E+01  1460   0.786E+00    0.153E+01
RMM:   9    -0.116570604995E+04   -0.11127E+01   -0.82029E+00  1465   0.358E+00    0.990E+00
RMM:  10    -0.116468838822E+04    0.10177E+01   -0.23556E+00  1456   0.162E+00    0.461E+00
RMM:  11    -0.116436422573E+04    0.32416E+00   -0.64066E-01  1460   0.941E-01    0.253E+00
RMM:  12    -0.116429386475E+04    0.70361E-01   -0.25283E-01  1450   0.571E-01    0.965E-01
RMM:  13    -0.116427918015E+04    0.14685E-01   -0.43544E-02  1475   0.229E-01    0.435E-01
RMM:  14    -0.116427756563E+04    0.16145E-02   -0.11656E-02  1557   0.120E-01    0.313E-01
RMM:  15    -0.116427750810E+04    0.57536E-04   -0.25699E-03  1521   0.575E-02    0.231E-01
RMM:  16    -0.116427781958E+04   -0.31148E-03   -0.65224E-04  1269   0.298E-02    0.119E-01
RMM:  17    -0.116427778032E+04    0.39259E-04   -0.63349E-04  1349   0.318E-02
   1 F= -.11713568E+04 E0= -.11713492E+04  d E =-.117136E+04  mag=    -0.7371
       N       E                     dE             d eps       ncg     rms          rms(c)
DAV:   1    -0.116427666113E+04    0.11584E-02   -0.72794E-01  1512   0.128E+00    0.114E+00
RMM:   2    -0.116427968680E+04   -0.30257E-02   -0.34824E-02  1484   0.192E-01    0.107E+00
RMM:   3    -0.116427890559E+04    0.78120E-03   -0.19795E-03  1496   0.518E-02    0.760E-01
RMM:   4    -0.116427898488E+04   -0.79293E-04   -0.42956E-03  1450   0.737E-02    0.125E-01
RMM:   5    -0.116427869087E+04    0.29401E-03   -0.30265E-04  1000   0.197E-02    0.829E-02
RMM:   6    -0.116427866951E+04    0.21365E-04   -0.33870E-04  1022   0.184E-02
   2 F= -.11713574E+04 E0= -.11713500E+04  d E =-.611566E-03  mag=    -0.7462
       N       E                     dE             d eps       ncg     rms          rms(c)
DAV:   1    -0.116427956070E+04   -0.86983E-03   -0.15992E-01  1584   0.597E-01    0.538E-01
RMM:   2    -0.116428003177E+04   -0.47107E-03   -0.63078E-03  1463   0.866E-02    0.506E-01
RMM:   3    -0.116427975899E+04    0.27279E-03   -0.45941E-04  1032   0.265E-02    0.338E-01
RMM:   4    -0.116427978409E+04   -0.25099E-04   -0.11770E-03  1443   0.389E-02    0.688E-02
RMM:   5    -0.116427969328E+04    0.90808E-04   -0.13816E-04   905   0.129E-02
   3 F= -.11713585E+04 E0= -.11713511E+04  d E =-.176318E-02  mag=    -0.7450
       N       E                     dE             d eps       ncg     rms          rms(c)
DAV:   1    -0.116427985189E+04   -0.67802E-04   -0.28155E-01  1476   0.887E-01    0.445E-01
RMM:   2    -0.116428062828E+04   -0.77639E-03   -0.11310E-02  1444   0.134E-01    0.384E-01
RMM:   3    -0.116427998237E+04    0.64591E-03   -0.88417E-04  1436   0.392E-02    0.255E-01
RMM:   4    -0.116427991645E+04    0.65919E-04   -0.22470E-03  1440   0.552E-02    0.733E-02
RMM:   5    -0.116427979424E+04    0.12221E-03   -0.20311E-04   957   0.159E-02    0.473E-02
RMM:   6    -0.116427980513E+04   -0.10888E-04   -0.81766E-05   888   0.109E-02
   4 F= -.11713586E+04 E0= -.11713512E+04  d E =-.107864E-03  mag=    -0.7441
       N       E                     dE             d eps       ncg     rms          rms(c)
DAV:   1    -0.116428036446E+04   -0.57022E-03   -0.72474E-02  1584   0.451E-01    0.229E-01
RMM:   2    -0.116428054631E+04   -0.18185E-03   -0.29789E-03  1419   0.687E-02    0.197E-01
RMM:   3    -0.116428034404E+04    0.20226E-03   -0.22998E-04   931   0.209E-02    0.128E-01
RMM:   4    -0.116428030695E+04    0.37097E-04   -0.64335E-04  1329   0.305E-02
   5 F= -.11713591E+04 E0= -.11713517E+04  d E =-.612925E-03  mag=    -0.7447
