       N       E                     dE             d eps       ncg     rms          rms(c)
DAV:   1     0.484360863583E+04    0.48436E+04   -0.17440E+05  1824   0.940E+02
DAV:   2    -0.545608757653E+02   -0.48982E+04   -0.44655E+04  2464   0.215E+02
DAV:   3    -0.119316268713E+04   -0.11386E+04   -0.11330E+04  1984   0.113E+02
DAV:   4    -0.124277252717E+04   -0.49610E+02   -0.49339E+02  1984   0.330E+01
DAV:   5    -0.124419301262E+04   -0.14205E+01   -0.14170E+01  2240   0.502E+00    0.727E+01
RMM:   6    -0.122887474937E+04    0.15318E+02   -0.10739E+01  1568   0.406E+00    0.549E+01
RMM:   7    -0.120321327686E+04    0.25661E+02   -0.11885E+02  1650   0.117E+01    0.444E+01
RMM:   8    -0.119884752278E+04    0.43658E+01   -0.76828E+00  1560   0.487E+00    0.397E+01
RMM:   9    -0.119062026672E+04    0.82273E+01   -0.40679E+00  1563   0.277E+00    0.333E+01
RMM:  10    -0.118148637966E+04    0.91339E+01   -0.26716E+01  1761   0.606E+00    0.250E+01
RMM:  11    -0.118278241714E+04   -0.12960E+01   -0.11709E+01  1590   0.446E+00    0.230E+01
RMM:  12    -0.117936764603E+04    0.34148E+01   -0.42143E+00  1706   0.297E+00    0.127E+01
RMM:  13    -0.117755018546E+04    0.18175E+01   -0.52016E+00  1743   0.232E+00    0.878E+00
RMM:  14    -0.117764870872E+04   -0.98523E-01   -0.67099E-01  1644   0.108E+00    0.734E+00
RMM:  15    -0.117728682154E+04    0.36189E+00   -0.16654E+00  1651   0.156E+00    0.543E+00
RMM:  16    -0.117719400432E+04    0.92817E-01   -0.15530E-01  1586   0.610E-01    0.322E+00
RMM:  17    -0.117720199927E+04   -0.79950E-02   -0.13680E-01  1558   0.462E-01    0.209E+00
RMM:  18    -0.117724367401E+04   -0.41675E-01   -0.69184E-02  1632   0.362E-01    0.184E+00
RMM:  19    -0.117722162128E+04    0.22053E-01   -0.99287E-03  1700   0.179E-01    0.153E+00
RMM:  20    -0.117720911208E+04    0.12509E-01   -0.62121E-03  1566   0.909E-02    0.122E+00
RMM:  21    -0.117719889649E+04    0.10216E-01   -0.52787E-03  1667   0.775E-02    0.896E-01
RMM:  22    -0.117719388644E+04    0.50100E-02   -0.32572E-03  1742   0.556E-02    0.695E-01
RMM:  23    -0.117719277481E+04    0.11116E-02   -0.77140E-04  1706   0.296E-02    0.558E-01
RMM:  24    -0.117719192357E+04    0.85124E-03   -0.49739E-04  1671   0.254E-02    0.410E-01
RMM:  25    -0.117719135930E+04    0.56426E-03   -0.13646E-03  1735   0.386E-02    0.222E-01
RMM:  26    -0.117719136676E+04   -0.74548E-05   -0.19829E-04  1715   0.167E-02    0.119E-01
RMM:  27    -0.117719138043E+04   -0.13673E-04   -0.49000E-05  1746   0.960E-03    0.569E-02
RMM:  28    -0.117719138661E+04   -0.61749E-05   -0.21707E-05  1600   0.614E-03    0.277E-02
RMM:  29    -0.117719138925E+04   -0.26428E-05   -0.61476E-06  1378   0.365E-03    0.162E-02
RMM:  30    -0.117719139017E+04   -0.92272E-06   -0.32706E-06  1146   0.252E-03
   1 F= -.11842714E+04 E0= -.11842714E+04  d E =-.118427E+04  mag=     0.0003
       N       E                     dE             d eps       ncg     rms          rms(c)
DAV:   1    -0.117719035208E+04    0.10372E-02   -0.30297E-01  1696   0.105E+00    0.149E-01
RMM:   2    -0.117719140142E+04   -0.10493E-02   -0.12768E-02  1558   0.157E-01    0.136E-01
RMM:   3    -0.117719156291E+04   -0.16150E-03   -0.22135E-03  1837   0.639E-02    0.117E-01
RMM:   4    -0.117719149599E+04    0.66928E-04   -0.36064E-04  1707   0.260E-02    0.988E-02
RMM:   5    -0.117719144090E+04    0.55089E-04   -0.55468E-04  1551   0.290E-02    0.445E-02
RMM:   6    -0.117719146697E+04   -0.26069E-04   -0.15527E-04  1668   0.175E-02    0.322E-02
RMM:   7    -0.117719145777E+04    0.91963E-05   -0.31512E-05  1567   0.839E-03    0.203E-02
RMM:   8    -0.117719146695E+04   -0.91836E-05   -0.18175E-05  1597   0.567E-03    0.129E-02
RMM:   9    -0.117719146673E+04    0.22636E-06   -0.53060E-06  1397   0.349E-03
   2 F= -.11842722E+04 E0= -.11842722E+04  d E =-.775606E-03  mag=     0.0000
       N       E                     dE             d eps       ncg     rms          rms(c)
DAV:   1    -0.117719173487E+04   -0.26791E-03   -0.23857E-02  1824   0.295E-01    0.421E-02
RMM:   2    -0.117719178807E+04   -0.53200E-04   -0.84807E-04  1537   0.414E-02    0.380E-02
RMM:   3    -0.117719179687E+04   -0.88016E-05   -0.12497E-04  1769   0.162E-02    0.321E-02
RMM:   4    -0.117719179417E+04    0.27006E-05   -0.25479E-05  1590   0.684E-03    0.266E-02
RMM:   5    -0.117719179701E+04   -0.28368E-05   -0.34598E-05  1538   0.767E-03    0.110E-02
RMM:   6    -0.117719179968E+04   -0.26762E-05   -0.10042E-05  1544   0.468E-03    0.748E-03
RMM:   7    -0.117719179936E+04    0.32292E-06   -0.21294E-06  1049   0.254E-03
   3 F= -.11842723E+04 E0= -.11842723E+04  d E =-.911268E-03  mag=     0.0000
       N       E                     dE             d eps       ncg     rms          rms(c)
DAV:   1    -0.117719200472E+04   -0.20504E-03   -0.11760E-01  1888   0.625E-01    0.773E-02
RMM:   2    -0.117719222841E+04   -0.22369E-03   -0.30177E-03  1536   0.849E-02    0.798E-02
RMM:   3    -0.117719226759E+04   -0.39179E-04   -0.52454E-04  1766   0.342E-02    0.667E-02
RMM:   4    -0.117719225507E+04    0.12513E-04   -0.88800E-05  1709   0.136E-02    0.615E-02
RMM:   5    -0.117719224261E+04    0.12466E-04   -0.16063E-04  1536   0.158E-02    0.270E-02
RMM:   6    -0.117719225502E+04   -0.12410E-04   -0.55089E-05  1575   0.103E-02    0.185E-02
RMM:   7    -0.117719225192E+04    0.30942E-05   -0.56662E-06  1473   0.472E-03    0.160E-02
RMM:   8    -0.117719225292E+04   -0.10020E-05   -0.11298E-05  1476   0.378E-03    0.118E-02
RMM:   9    -0.117719225367E+04   -0.74734E-06   -0.14748E-06  1022   0.218E-03
   4 F= -.11842730E+04 E0= -.11842730E+04  d E =-.721393E-03  mag=     0.0000
