       N       E                     dE             d eps       ncg     rms          rms(c)
DAV:   1     0.470295294199E+04    0.47030E+04   -0.17575E+05  1908   0.913E+02
DAV:   2    -0.104692941158E+03   -0.48076E+04   -0.43950E+04  2520   0.205E+02
DAV:   3    -0.119964326895E+04   -0.10950E+04   -0.10909E+04  2124   0.107E+02
DAV:   4    -0.124263941593E+04   -0.42996E+02   -0.42781E+02  2016   0.278E+01
DAV:   5    -0.124373825292E+04   -0.10988E+01   -0.10962E+01  2304   0.412E+00    0.666E+01
RMM:   6    -0.122983038715E+04    0.13908E+02   -0.85091E+00  1588   0.319E+00    0.544E+01
RMM:   7    -0.118773138178E+04    0.42099E+02   -0.80455E+01  1588   0.977E+00    0.298E+01
RMM:   8    -0.117874103004E+04    0.89904E+01   -0.29322E+01  1584   0.611E+00    0.173E+01
RMM:   9    -0.117892934958E+04   -0.18832E+00   -0.15330E+01  1585   0.446E+00    0.111E+01
RMM:  10    -0.117818767534E+04    0.74167E+00   -0.32127E+00  1624   0.166E+00    0.593E+00
RMM:  11    -0.117770544845E+04    0.48223E+00   -0.55866E-01  1593   0.827E-01    0.321E+00
RMM:  12    -0.117749806973E+04    0.20738E+00   -0.93721E-01  1584   0.984E-01    0.124E+00
RMM:  13    -0.117745493914E+04    0.43131E-01   -0.11558E-01  1606   0.353E-01    0.370E-01
RMM:  14    -0.117745324980E+04    0.16893E-02   -0.14255E-02  1655   0.123E-01    0.274E-01
RMM:  15    -0.117745319251E+04    0.57284E-04   -0.61641E-03  1586   0.665E-02    0.168E-01
RMM:  16    -0.117745333752E+04   -0.14501E-03   -0.69315E-04  1404   0.327E-02    0.115E-01
RMM:  17    -0.117745335432E+04   -0.16803E-04   -0.55960E-04  1195   0.243E-02
   1 F= -.11847521E+04 E0= -.11847445E+04  d E =-.118475E+04  mag=    -0.7534
       N       E                     dE             d eps       ncg     rms          rms(c)
DAV:   1    -0.117745255631E+04    0.78122E-03   -0.33636E-01  1656   0.960E-01    0.194E-01
RMM:   2    -0.117745369132E+04   -0.11350E-02   -0.13949E-02  1618   0.160E-01    0.173E-01
RMM:   3    -0.117745339457E+04    0.29675E-03   -0.76795E-04  1467   0.351E-02    0.146E-01
RMM:   4    -0.117745301293E+04    0.38164E-03   -0.17875E-03  1582   0.450E-02    0.684E-02
RMM:   5    -0.117745296522E+04    0.47710E-04   -0.11309E-04  1060   0.145E-02
   2 F= -.11847518E+04 E0= -.11847446E+04  d E =0.281025E-03  mag=    -0.7537
       N       E                     dE             d eps       ncg     rms          rms(c)
DAV:   1    -0.117745415704E+04   -0.11441E-02   -0.10654E-01  1692   0.535E-01    0.987E-02
RMM:   2    -0.117745434246E+04   -0.18542E-03   -0.32538E-03  1608   0.831E-02    0.913E-02
RMM:   3    -0.117745421079E+04    0.13167E-03   -0.15499E-04  1074   0.174E-02    0.779E-02
RMM:   4    -0.117745406490E+04    0.14590E-03   -0.12290E-03  1566   0.365E-02    0.325E-02
RMM:   5    -0.117745404329E+04    0.21610E-04   -0.24865E-05   999   0.811E-03
   3 F= -.11847528E+04 E0= -.11847457E+04  d E =-.735423E-03  mag=    -0.7573
