       N       E                     dE             d eps       ncg     rms          rms(c)
DAV:   1     0.483392189710E+04    0.48339E+04   -0.17142E+05  1692   0.991E+02
DAV:   2    -0.491352620920E+01   -0.48388E+04   -0.44506E+04  2268   0.223E+02
DAV:   3    -0.116779241708E+04   -0.11629E+04   -0.11573E+04  1872   0.119E+02
DAV:   4    -0.121916873019E+04   -0.51376E+02   -0.50996E+02  1872   0.331E+01
DAV:   5    -0.122041590833E+04   -0.12472E+01   -0.12447E+01  2124   0.492E+00    0.599E+01
RMM:   6    -0.120771142946E+04    0.12704E+02   -0.83685E+00  1440   0.405E+00    0.490E+01
RMM:   7    -0.117753941589E+04    0.30172E+02   -0.33352E+01  1440   0.734E+00    0.322E+01
RMM:   8    -0.115993968925E+04    0.17600E+02   -0.27465E+01  1440   0.653E+00    0.223E+01
RMM:   9    -0.115789216067E+04    0.20475E+01   -0.32978E+01  1440   0.721E+00    0.917E+00
RMM:  10    -0.115776974446E+04    0.12242E+00   -0.93338E-01  1512   0.146E+00    0.585E+00
RMM:  11    -0.115712081574E+04    0.64893E+00   -0.28040E+00  1440   0.205E+00    0.265E+00
RMM:  12    -0.115713249584E+04   -0.11680E-01   -0.14595E-01  1440   0.491E-01    0.104E+00
RMM:  13    -0.115712366686E+04    0.88290E-02   -0.66032E-02  1440   0.324E-01    0.500E-01
RMM:  14    -0.115711982935E+04    0.38375E-02   -0.11525E-02  1450   0.132E-01    0.245E-01
RMM:  15    -0.115711952669E+04    0.30266E-03   -0.56431E-03  1451   0.929E-02    0.166E-01
RMM:  16    -0.115711954321E+04   -0.16517E-04   -0.28713E-03  1440   0.699E-02    0.129E-01
RMM:  17    -0.115711954746E+04   -0.42543E-05   -0.90493E-04  1352   0.432E-02
   1 F= -.11640937E+04 E0= -.11640936E+04  d E =-.116409E+04  mag=     0.9954
       N       E                     dE             d eps       ncg     rms          rms(c)
DAV:   1    -0.115712047932E+04   -0.93611E-03   -0.28281E-01  1476   0.924E-01    0.157E-01
RMM:   2    -0.115712073457E+04   -0.25526E-03   -0.60612E-03  1441   0.125E-01    0.146E-01
RMM:   3    -0.115712041489E+04    0.31968E-03   -0.42833E-04  1102   0.322E-02    0.120E-01
RMM:   4    -0.115711997699E+04    0.43790E-03   -0.10690E-03  1436   0.415E-02    0.542E-02
RMM:   5    -0.115711995542E+04    0.21569E-04   -0.23687E-04   996   0.215E-02
   2 F= -.11640942E+04 E0= -.11640942E+04  d E =-.523941E-03  mag=     0.9992
       N       E                     dE             d eps       ncg     rms          rms(c)
DAV:   1    -0.115712043014E+04   -0.45315E-03   -0.41153E-02  1656   0.352E-01    0.570E-02
RMM:   2    -0.115712044471E+04   -0.14566E-04   -0.75844E-04  1372   0.458E-02
   3 F= -.11640946E+04 E0= -.11640946E+04  d E =-.968513E-03  mag=     0.9993
