       N       E                     dE             d eps       ncg     rms          rms(c)
DAV:   1     0.476838566576E+04    0.47684E+04   -0.17799E+05  1908   0.928E+02
DAV:   2    -0.749087791489E+02   -0.48433E+04   -0.44286E+04  2556   0.211E+02
DAV:   3    -0.120099805295E+04   -0.11261E+04   -0.11199E+04  2052   0.110E+02
DAV:   4    -0.124754813704E+04   -0.46550E+02   -0.46248E+02  2016   0.307E+01
DAV:   5    -0.124886439656E+04   -0.13163E+01   -0.13111E+01  2340   0.473E+00    0.701E+01
RMM:   6    -0.123218467278E+04    0.16680E+02   -0.33066E+01  1610   0.602E+00    0.627E+01
RMM:   7    -0.121892043501E+04    0.13264E+02   -0.52205E+00  1586   0.293E+00    0.481E+01
RMM:   8    -0.119469993418E+04    0.24221E+02   -0.26546E+01  1584   0.615E+00    0.313E+01
RMM:   9    -0.118081582671E+04    0.13884E+02   -0.22890E+01  1589   0.582E+00    0.218E+01
RMM:  10    -0.118102642044E+04   -0.21059E+00   -0.24591E+01  1584   0.590E+00    0.104E+01
RMM:  11    -0.118040984737E+04    0.61657E+00   -0.13063E+00  1626   0.229E+00    0.720E+00
RMM:  12    -0.118010582733E+04    0.30402E+00   -0.57267E-01  1596   0.753E-01    0.517E+00
RMM:  13    -0.117966974237E+04    0.43608E+00   -0.11703E+00  1584   0.125E+00    0.145E+00
RMM:  14    -0.117963101210E+04    0.38730E-01   -0.14498E-01  1591   0.554E-01    0.881E-01
RMM:  15    -0.117962779872E+04    0.32134E-02   -0.20882E-02  1749   0.181E-01    0.592E-01
RMM:  16    -0.117962653281E+04    0.12659E-02   -0.33496E-03  1591   0.822E-02    0.455E-01
RMM:  17    -0.117962624386E+04    0.28895E-03   -0.48483E-03  1646   0.807E-02    0.272E-01
RMM:  18    -0.117962632930E+04   -0.85439E-04   -0.77478E-04  1232   0.430E-02
   1 F= -.11870253E+04 E0= -.11870253E+04  d E =-.118703E+04  mag=     0.0258
       N       E                     dE             d eps       ncg     rms          rms(c)
DAV:   1    -0.117962652852E+04   -0.28466E-03   -0.43752E-01  1656   0.106E+00    0.249E-01
RMM:   2    -0.117962712726E+04   -0.59874E-03   -0.12666E-02  1604   0.169E-01    0.247E-01
RMM:   3    -0.117962692161E+04    0.20565E-03   -0.92699E-04  1458   0.499E-02    0.271E-01
RMM:   4    -0.117962695516E+04   -0.33550E-04   -0.11946E-04  1058   0.168E-02
   2 F= -.11870263E+04 E0= -.11870263E+04  d E =-.105924E-02  mag=     0.0052
       N       E                     dE             d eps       ncg     rms          rms(c)
DAV:   1    -0.117962621498E+04    0.70663E-03   -0.31488E-02  1836   0.275E-01    0.738E-02
RMM:   2    -0.117962636617E+04   -0.15119E-03   -0.13254E-03  1580   0.559E-02    0.728E-02
RMM:   3    -0.117962636591E+04    0.25989E-06   -0.59921E-05  1001   0.160E-02
   3 F= -.11870256E+04 E0= -.11870256E+04  d E =-.372857E-03  mag=     0.0022
       N       E                     dE             d eps       ncg     rms          rms(c)
DAV:   1    -0.117962700001E+04   -0.63384E-03   -0.39723E-02  1656   0.316E-01    0.114E-01
RMM:   2    -0.117962702054E+04   -0.20524E-04   -0.92339E-04  1477   0.487E-02
   4 F= -.11870262E+04 E0= -.11870262E+04  d E =-.897872E-03  mag=     0.0021
