       N       E                     dE             d eps       ncg     rms          rms(c)
DAV:   1     0.489483414229E+04    0.48948E+04   -0.17710E+05  1856   0.949E+02
DAV:   2    -0.295448159361E+02   -0.49244E+04   -0.45050E+04  2432   0.215E+02
DAV:   3    -0.119835144242E+04   -0.11688E+04   -0.11631E+04  2016   0.114E+02
DAV:   4    -0.124726052492E+04   -0.48909E+02   -0.48612E+02  1952   0.308E+01
DAV:   5    -0.124848007982E+04   -0.12196E+01   -0.12160E+01  2368   0.445E+00    0.730E+01
RMM:   6    -0.122860576903E+04    0.19874E+02   -0.21270E+01  1588   0.546E+00    0.529E+01
RMM:   7    -0.121517634144E+04    0.13429E+02   -0.97456E+00  1538   0.431E+00    0.432E+01
RMM:   8    -0.118936358606E+04    0.25813E+02   -0.34240E+01  1604   0.748E+00    0.277E+01
RMM:   9    -0.117928006645E+04    0.10084E+02   -0.21402E+01  1537   0.622E+00    0.195E+01
RMM:  10    -0.117873340539E+04    0.54666E+00   -0.17276E+01  1551   0.556E+00    0.912E+00
RMM:  11    -0.117897991892E+04   -0.24651E+00   -0.20153E+00  1598   0.240E+00    0.653E+00
RMM:  12    -0.117847232625E+04    0.50759E+00   -0.63692E-01  1536   0.120E+00    0.302E+00
RMM:  13    -0.117834413592E+04    0.12819E+00   -0.78806E-01  1536   0.113E+00    0.158E+00
RMM:  14    -0.117834382090E+04    0.31502E-03   -0.69775E-02  1547   0.461E-01    0.764E-01
RMM:  15    -0.117833597708E+04    0.78438E-02   -0.19102E-02  1598   0.219E-01    0.406E-01
RMM:  16    -0.117833527934E+04    0.69775E-03   -0.14483E-02  1578   0.155E-01    0.198E-01
RMM:  17    -0.117833581207E+04   -0.53273E-03   -0.30922E-03  1897   0.810E-02    0.185E-01
RMM:  18    -0.117833565181E+04    0.16026E-03   -0.41838E-04  1562   0.296E-02    0.168E-01
RMM:  19    -0.117833581396E+04   -0.16215E-03   -0.69745E-04  1545   0.325E-02    0.865E-02
RMM:  20    -0.117833582196E+04   -0.79996E-05   -0.93031E-05  1692   0.139E-02    0.831E-02
RMM:  21    -0.117833587264E+04   -0.50680E-04   -0.63268E-05  1557   0.115E-02    0.451E-02
RMM:  22    -0.117833588259E+04   -0.99529E-05   -0.87140E-05  1550   0.120E-02    0.193E-02
RMM:  23    -0.117833589106E+04   -0.84762E-05   -0.16443E-05  1551   0.627E-03    0.137E-02
RMM:  24    -0.117833588426E+04    0.68010E-05   -0.78013E-06  1504   0.373E-03    0.100E-02
RMM:  25    -0.117833588532E+04   -0.10512E-05   -0.30236E-06  1096   0.203E-03    0.620E-03
RMM:  26    -0.117833588713E+04   -0.18123E-05   -0.90212E-07  1028   0.125E-03    0.321E-03
RMM:  27    -0.117833588691E+04    0.21727E-06   -0.28562E-07  1008   0.741E-04
   1 F= -.11854145E+04 E0= -.11854145E+04  d E =-.118541E+04  mag=     3.0001
       N       E                     dE             d eps       ncg     rms          rms(c)
DAV:   1    -0.117833304592E+04    0.28412E-02   -0.47094E-01  1728   0.135E+00    0.214E-01
RMM:   2    -0.117833473345E+04   -0.16875E-02   -0.19852E-02  1567   0.211E-01    0.180E-01
RMM:   3    -0.117833486696E+04   -0.13351E-03   -0.40186E-03  1662   0.862E-02    0.147E-01
RMM:   4    -0.117833460869E+04    0.25827E-03   -0.89386E-04  1646   0.424E-02    0.102E-01
RMM:   5    -0.117833446133E+04    0.14736E-03   -0.60701E-04  1553   0.330E-02    0.592E-02
RMM:   6    -0.117833447393E+04   -0.12604E-04   -0.19322E-04  1631   0.205E-02    0.372E-02
RMM:   7    -0.117833448047E+04   -0.65313E-05   -0.58692E-05  1592   0.117E-02    0.199E-02
RMM:   8    -0.117833448361E+04   -0.31478E-05   -0.21778E-05  1568   0.665E-03    0.122E-02
RMM:   9    -0.117833448149E+04    0.21255E-05   -0.14478E-05  1528   0.486E-03    0.783E-03
RMM:  10    -0.117833448270E+04   -0.12108E-05   -0.46522E-06  1387   0.302E-03    0.501E-03
RMM:  11    -0.117833448230E+04    0.39730E-06   -0.12940E-06  1012   0.149E-03
   2 F= -.11854138E+04 E0= -.11854138E+04  d E =0.746074E-03  mag=     3.0000
       N       E                     dE             d eps       ncg     rms          rms(c)
DAV:   1    -0.117833593845E+04   -0.14558E-02   -0.16017E-01  1728   0.784E-01    0.132E-01
RMM:   2    -0.117833645301E+04   -0.51455E-03   -0.64654E-03  1555   0.122E-01    0.107E-01
RMM:   3    -0.117833650348E+04   -0.50474E-04   -0.14484E-03  1622   0.486E-02    0.820E-02
RMM:   4    -0.117833643454E+04    0.68936E-04   -0.24490E-04  1676   0.224E-02    0.615E-02
RMM:   5    -0.117833637940E+04    0.55144E-04   -0.21431E-04  1544   0.195E-02    0.313E-02
RMM:   6    -0.117833638530E+04   -0.58976E-05   -0.77927E-05  1568   0.127E-02    0.195E-02
RMM:   7    -0.117833638475E+04    0.55178E-06   -0.13811E-05  1577   0.604E-03    0.118E-02
RMM:   8    -0.117833638544E+04   -0.69556E-06   -0.91538E-06  1504   0.392E-03
   3 F= -.11854153E+04 E0= -.11854153E+04  d E =-.771097E-03  mag=     3.0000
       N       E                     dE             d eps       ncg     rms          rms(c)
DAV:   1    -0.117833445669E+04    0.19281E-02   -0.37773E-01  1920   0.121E+00    0.225E-01
RMM:   2    -0.117833618957E+04   -0.17329E-02   -0.19486E-02  1561   0.176E-01    0.160E-01
RMM:   3    -0.117833657217E+04   -0.38260E-03   -0.46269E-03  1606   0.679E-02    0.106E-01
RMM:   4    -0.117833651852E+04    0.53647E-04   -0.48091E-04  1710   0.280E-02    0.866E-02
RMM:   5    -0.117833643663E+04    0.81893E-04   -0.23205E-04  1544   0.203E-02    0.506E-02
RMM:   6    -0.117833645547E+04   -0.18837E-04   -0.21664E-04  1539   0.193E-02    0.239E-02
RMM:   7    -0.117833646950E+04   -0.14030E-04   -0.30071E-05  1576   0.869E-03    0.160E-02
RMM:   8    -0.117833647469E+04   -0.51913E-05   -0.95834E-06  1553   0.442E-03    0.102E-02
RMM:   9    -0.117833647350E+04    0.11832E-05   -0.61925E-06  1477   0.323E-03    0.556E-03
RMM:  10    -0.117833647443E+04   -0.92330E-06   -0.29858E-06  1155   0.227E-03
   4 F= -.11854159E+04 E0= -.11854159E+04  d E =-.619446E-03  mag=     3.0000
       N       E                     dE             d eps       ncg     rms          rms(c)
DAV:   1    -0.117833657661E+04   -0.10310E-03   -0.29179E-02  1760   0.336E-01    0.626E-02
RMM:   2    -0.117833669363E+04   -0.11702E-03   -0.15005E-03  1561   0.494E-02    0.448E-02
RMM:   3    -0.117833672793E+04   -0.34299E-04   -0.35749E-04  1606   0.190E-02    0.299E-02
RMM:   4    -0.117833672598E+04    0.19511E-05   -0.34971E-05  1660   0.771E-03    0.244E-02
RMM:   5    -0.117833672366E+04    0.23186E-05   -0.20172E-05  1540   0.601E-03    0.136E-02
RMM:   6    -0.117833672552E+04   -0.18638E-05   -0.15316E-05  1538   0.519E-03    0.673E-03
RMM:   7    -0.117833672654E+04   -0.10132E-05   -0.23425E-06  1061   0.238E-03    0.443E-03
RMM:   8    -0.117833672673E+04   -0.18896E-06   -0.57957E-07   999   0.113E-03
   5 F= -.11854160E+04 E0= -.11854160E+04  d E =-.723942E-03  mag=     3.0000
       N       E                     dE             d eps       ncg     rms          rms(c)
DAV:   1    -0.117833486055E+04    0.18660E-02   -0.37372E-01  1824   0.113E+00    0.185E-01
RMM:   2    -0.117833626738E+04   -0.14068E-02   -0.16039E-02  1567   0.164E-01    0.141E-01
RMM:   3    -0.117833659845E+04   -0.33108E-03   -0.31740E-03  1617   0.627E-02    0.107E-01
RMM:   4    -0.117833663037E+04   -0.31919E-04   -0.49783E-04  1768   0.266E-02    0.824E-02
RMM:   5    -0.117833662064E+04    0.97341E-05   -0.17264E-04  1554   0.171E-02    0.496E-02
RMM:   6    -0.117833663782E+04   -0.17176E-04   -0.72529E-05  1559   0.115E-02    0.348E-02
RMM:   7    -0.117833667787E+04   -0.40057E-04   -0.36399E-05  1564   0.875E-03    0.143E-02
RMM:   8    -0.117833668692E+04   -0.90448E-05   -0.96050E-06  1553   0.470E-03    0.100E-02
RMM:   9    -0.117833668536E+04    0.15563E-05   -0.33848E-06  1174   0.259E-03    0.628E-03
RMM:  10    -0.117833668593E+04   -0.56520E-06   -0.39305E-06  1232   0.248E-03
   6 F= -.11854164E+04 E0= -.11854164E+04  d E =-.379321E-03  mag=     3.0000
       N       E                     dE             d eps       ncg     rms          rms(c)
DAV:   1    -0.117833676076E+04   -0.75399E-04   -0.38347E-02  1728   0.367E-01    0.594E-02
RMM:   2    -0.117833688095E+04   -0.12019E-03   -0.16193E-03  1566   0.528E-02    0.459E-02
RMM:   3    -0.117833691566E+04   -0.34709E-04   -0.31338E-04  1615   0.201E-02    0.357E-02
RMM:   4    -0.117833692281E+04   -0.71518E-05   -0.46350E-05  1710   0.845E-03    0.275E-02
RMM:   5    -0.117833692776E+04   -0.49442E-05   -0.16652E-05  1543   0.559E-03    0.166E-02
RMM:   6    -0.117833693223E+04   -0.44717E-05   -0.78279E-06  1514   0.384E-03    0.118E-02
RMM:   7    -0.117833693758E+04   -0.53561E-05   -0.45140E-06  1228   0.303E-03    0.470E-03
RMM:   8    -0.117833693840E+04   -0.81500E-06   -0.92494E-07  1014   0.151E-03
   7 F= -.11854165E+04 E0= -.11854165E+04  d E =-.495090E-03  mag=     3.0000
       N       E                     dE             d eps       ncg     rms          rms(c)
DAV:   1    -0.117833593686E+04    0.10007E-02   -0.29420E-01  1760   0.942E-01    0.154E-01
RMM:   2    -0.117833689796E+04   -0.96109E-03   -0.11030E-02  1571   0.130E-01    0.123E-01
RMM:   3    -0.117833712854E+04   -0.23058E-03   -0.21485E-03  1622   0.496E-02    0.985E-02
RMM:   4    -0.117833716825E+04   -0.39711E-04   -0.21857E-04  1830   0.190E-02    0.789E-02
RMM:   5    -0.117833718495E+04   -0.16694E-04   -0.83670E-05  1560   0.124E-02    0.461E-02
RMM:   6    -0.117833720125E+04   -0.16304E-04   -0.33824E-05  1555   0.774E-03    0.338E-02
RMM:   7    -0.117833724289E+04   -0.41642E-04   -0.22844E-05  1565   0.669E-03    0.138E-02
RMM:   8    -0.117833725090E+04   -0.80093E-05   -0.49446E-06  1293   0.334E-03    0.968E-03
RMM:   9    -0.117833725124E+04   -0.33499E-06   -0.25425E-06  1069   0.213E-03
   8 F= -.11854172E+04 E0= -.11854172E+04  d E =-.679733E-03  mag=     3.0000
       N       E                     dE             d eps       ncg     rms          rms(c)
DAV:   1    -0.117833698124E+04    0.26967E-03   -0.43663E-02  1728   0.362E-01    0.592E-02
RMM:   2    -0.117833710284E+04   -0.12161E-03   -0.16517E-03  1571   0.503E-02    0.476E-02
RMM:   3    -0.117833713735E+04   -0.34505E-04   -0.31712E-04  1622   0.192E-02    0.381E-02
RMM:   4    -0.117833714932E+04   -0.11972E-04   -0.36640E-05  1744   0.751E-03    0.306E-02
RMM:   5    -0.117833716344E+04   -0.14122E-04   -0.13067E-05  1487   0.504E-03    0.180E-02
RMM:   6    -0.117833716970E+04   -0.62542E-05   -0.53958E-06  1236   0.310E-03    0.133E-02
RMM:   7    -0.117833717762E+04   -0.79193E-05   -0.35200E-06  1109   0.257E-03    0.547E-03
RMM:   8    -0.117833717882E+04   -0.12058E-05   -0.63297E-07  1017   0.129E-03    0.382E-03
RMM:   9    -0.117833717894E+04   -0.12228E-06   -0.44263E-07   991   0.928E-04
   9 F= -.11854173E+04 E0= -.11854173E+04  d E =-.748572E-03  mag=     3.0000
       N       E                     dE             d eps       ncg     rms          rms(c)
DAV:   1    -0.117833703393E+04    0.14489E-03   -0.10898E-01  1696   0.591E-01    0.935E-02
RMM:   2    -0.117833736816E+04   -0.33423E-03   -0.41550E-03  1576   0.826E-02    0.730E-02
RMM:   3    -0.117833745258E+04   -0.84421E-04   -0.80068E-04  1615   0.318E-02    0.588E-02
RMM:   4    -0.117833747047E+04   -0.17891E-04   -0.93154E-05  1804   0.126E-02    0.464E-02
RMM:   5    -0.117833748333E+04   -0.12859E-04   -0.36187E-05  1549   0.831E-03    0.270E-02
RMM:   6    -0.117833749516E+04   -0.11827E-04   -0.16875E-05  1546   0.558E-03    0.186E-02
RMM:   7    -0.117833751017E+04   -0.15008E-04   -0.85844E-06  1525   0.418E-03    0.825E-03
RMM:   8    -0.117833751271E+04   -0.25488E-05   -0.20061E-06  1062   0.214E-03    0.583E-03
RMM:   9    -0.117833751273E+04   -0.10405E-07   -0.12992E-06  1023   0.152E-03
  10 F= -.11854178E+04 E0= -.11854178E+04  d E =-.530388E-03  mag=     3.0000
       N       E                     dE             d eps       ncg     rms          rms(c)
DAV:   1    -0.117833665155E+04    0.86117E-03   -0.20438E-01  1632   0.808E-01    0.128E-01
RMM:   2    -0.117833731569E+04   -0.66415E-03   -0.78072E-03  1576   0.113E-01    0.999E-02
RMM:   3    -0.117833746861E+04   -0.15292E-03   -0.15019E-03  1615   0.436E-02    0.804E-02
RMM:   4    -0.117833749088E+04   -0.22272E-04   -0.17543E-04  1827   0.173E-02    0.634E-02
RMM:   5    -0.117833750523E+04   -0.14346E-04   -0.66907E-05  1550   0.112E-02    0.369E-02
RMM:   6    -0.117833752009E+04   -0.14863E-04   -0.31115E-05  1549   0.755E-03    0.257E-02
RMM:   7    -0.117833754664E+04   -0.26551E-04   -0.16265E-05  1561   0.576E-03    0.113E-02
RMM:   8    -0.117833755175E+04   -0.51012E-05   -0.38043E-06  1179   0.294E-03    0.804E-03
RMM:   9    -0.117833755179E+04   -0.42113E-07   -0.24993E-06  1070   0.210E-03
  11 F= -.11854181E+04 E0= -.11854181E+04  d E =-.839542E-03  mag=     3.0000
       N       E                     dE             d eps       ncg     rms          rms(c)
DAV:   1    -0.117833716010E+04    0.39165E-03   -0.15510E-01  1728   0.759E-01    0.120E-01
RMM:   2    -0.117833773143E+04   -0.57133E-03   -0.67197E-03  1571   0.106E-01    0.875E-02
RMM:   3    -0.117833788077E+04   -0.14935E-03   -0.13549E-03  1603   0.412E-02    0.674E-02
RMM:   4    -0.117833790409E+04   -0.23318E-04   -0.16223E-04  1807   0.166E-02    0.511E-02
RMM:   5    -0.117833791468E+04   -0.10587E-04   -0.45193E-05  1552   0.964E-03    0.311E-02
RMM:   6    -0.117833793154E+04   -0.16859E-04   -0.25984E-05  1543   0.721E-03    0.192E-02
RMM:   7    -0.117833794880E+04   -0.17265E-04   -0.12548E-05  1557   0.515E-03    0.899E-03
RMM:   8    -0.117833795154E+04   -0.27355E-05   -0.26126E-06  1096   0.246E-03    0.650E-03
RMM:   9    -0.117833795156E+04   -0.21231E-07   -0.21733E-06  1068   0.194E-03
  12 F= -.11854187E+04 E0= -.11854187E+04  d E =-.564397E-03  mag=     3.0000
       N       E                     dE             d eps       ncg     rms          rms(c)
DAV:   1    -0.117833726692E+04    0.68462E-03   -0.14664E-01  1696   0.738E-01    0.117E-01
RMM:   2    -0.117833780291E+04   -0.53599E-03   -0.63361E-03  1571   0.104E-01    0.852E-02
RMM:   3    -0.117833794567E+04   -0.14277E-03   -0.12835E-03  1604   0.401E-02    0.656E-02
RMM:   4    -0.117833796758E+04   -0.21911E-04   -0.15409E-04  1807   0.161E-02    0.497E-02
RMM:   5    -0.117833797883E+04   -0.11243E-04   -0.43248E-05  1550   0.937E-03    0.302E-02
RMM:   6    -0.117833799487E+04   -0.16042E-04   -0.25157E-05  1544   0.705E-03    0.186E-02
RMM:   7    -0.117833801132E+04   -0.16446E-04   -0.11812E-05  1556   0.501E-03    0.883E-03
RMM:   8    -0.117833801388E+04   -0.25612E-05   -0.24427E-06  1082   0.237E-03    0.639E-03
RMM:   9    -0.117833801388E+04   -0.49185E-08   -0.21368E-06  1058   0.193E-03
  13 F= -.11854189E+04 E0= -.11854189E+04  d E =-.788106E-03  mag=     3.0000
       N       E                     dE             d eps       ncg     rms          rms(c)
DAV:   1    -0.117833775232E+04    0.26156E-03   -0.13867E-01  1728   0.735E-01    0.116E-01
RMM:   2    -0.117833826622E+04   -0.51389E-03   -0.60079E-03  1569   0.101E-01    0.826E-02
RMM:   3    -0.117833841671E+04   -0.15049E-03   -0.12261E-03  1596   0.394E-02    0.626E-02
RMM:   4    -0.117833843959E+04   -0.22879E-04   -0.13331E-04  1805   0.157E-02    0.471E-02
RMM:   5    -0.117833845539E+04   -0.15798E-04   -0.34365E-05  1547   0.838E-03    0.297E-02
RMM:   6    -0.117833847641E+04   -0.21027E-04   -0.24940E-05  1543   0.702E-03    0.161E-02
RMM:   7    -0.117833848837E+04   -0.11958E-04   -0.83925E-06  1464   0.415E-03    0.838E-03
RMM:   8    -0.117833848990E+04   -0.15306E-05   -0.14120E-06  1043   0.178E-03    0.570E-03
RMM:   9    -0.117833848992E+04   -0.16349E-07   -0.19643E-06  1060   0.179E-03
  14 F= -.11854195E+04 E0= -.11854195E+04  d E =-.583252E-03  mag=     3.0000
