       N       E                     dE             d eps       ncg     rms          rms(c)
DAV:   1     0.455360797365E+04    0.45536E+04   -0.17657E+05  1944   0.908E+02
DAV:   2    -0.121971918864E+03   -0.46756E+04   -0.42530E+04  2520   0.202E+02
DAV:   3    -0.118769214900E+04   -0.10657E+04   -0.10603E+04  2124   0.105E+02
DAV:   4    -0.122964487759E+04   -0.41953E+02   -0.41731E+02  2052   0.273E+01
DAV:   5    -0.123071023381E+04   -0.10654E+01   -0.10629E+01  2304   0.404E+00    0.664E+01
RMM:   6    -0.122005394457E+04    0.10656E+02   -0.39950E+01  1591   0.593E+00    0.537E+01
RMM:   7    -0.120258572967E+04    0.17468E+02   -0.71457E+00  1590   0.303E+00    0.438E+01
RMM:   8    -0.118019881055E+04    0.22387E+02   -0.36396E+01  1584   0.690E+00    0.388E+01
RMM:   9    -0.116505809228E+04    0.15141E+02   -0.20648E+01  1589   0.505E+00    0.224E+01
RMM:  10    -0.116366963220E+04    0.13885E+01   -0.63612E+00  1584   0.294E+00    0.140E+01
RMM:  11    -0.116415547442E+04   -0.48584E+00   -0.87430E+00  1584   0.336E+00    0.796E+00
RMM:  12    -0.116392088756E+04    0.23459E+00   -0.84024E-01  1597   0.105E+00    0.565E+00
RMM:  13    -0.116383404610E+04    0.86841E-01   -0.77507E-01  1584   0.980E-01    0.462E+00
RMM:  14    -0.116337188784E+04    0.46216E+00   -0.69604E-01  1594   0.797E-01    0.152E+00
RMM:  15    -0.116333553265E+04    0.36355E-01   -0.29995E-02  1629   0.181E-01    0.130E+00
RMM:  16    -0.116331048299E+04    0.25050E-01   -0.25711E-02  1586   0.136E-01    0.951E-01
RMM:  17    -0.116329947012E+04    0.11013E-01   -0.26233E-02  1587   0.163E-01    0.498E-01
RMM:  18    -0.116330916840E+04   -0.96983E-02   -0.67678E-03  1594   0.797E-02    0.738E-01
RMM:  19    -0.116330312343E+04    0.60450E-02   -0.25773E-03  1557   0.479E-02    0.490E-01
RMM:  20    -0.116329911843E+04    0.40050E-02   -0.27003E-03  1452   0.420E-02    0.255E-01
RMM:  21    -0.116329855131E+04    0.56712E-03   -0.71664E-04  1320   0.256E-02    0.190E-01
RMM:  22    -0.116329848698E+04    0.64327E-04   -0.31193E-04  1147   0.206E-02
   1 F= -.11703605E+04 E0= -.11703550E+04  d E =-.117036E+04  mag=     0.9894
       N       E                     dE             d eps       ncg     rms          rms(c)
DAV:   1    -0.116328817533E+04    0.10376E-01   -0.23863E+00  1656   0.260E+00    0.592E-01
RMM:   2    -0.116330397073E+04   -0.15795E-01   -0.17010E-01  1589   0.429E-01    0.604E-01
RMM:   3    -0.116330003484E+04    0.39359E-02   -0.64878E-03  1748   0.831E-02    0.585E-01
RMM:   4    -0.116329821228E+04    0.18226E-02   -0.25019E-03  1598   0.560E-02    0.388E-01
RMM:   5    -0.116329759942E+04    0.61286E-03   -0.51244E-03  1584   0.812E-02    0.119E-01
RMM:   6    -0.116329761122E+04   -0.11798E-04   -0.20245E-04  1098   0.192E-02
   2 F= -.11703596E+04 E0= -.11703542E+04  d E =0.871903E-03  mag=     0.9974
       N       E                     dE             d eps       ncg     rms          rms(c)
DAV:   1    -0.116329939623E+04   -0.17968E-02   -0.63990E-01  1728   0.134E+00    0.309E-01
RMM:   2    -0.116330330507E+04   -0.39088E-02   -0.43521E-02  1592   0.215E-01    0.314E-01
RMM:   3    -0.116330221565E+04    0.10894E-02   -0.15494E-03  1331   0.404E-02    0.303E-01
RMM:   4    -0.116330154378E+04    0.67188E-03   -0.94864E-04  1567   0.356E-02    0.177E-01
RMM:   5    -0.116330138127E+04    0.16251E-03   -0.11769E-03  1584   0.392E-02    0.567E-02
RMM:   6    -0.116330139375E+04   -0.12478E-04   -0.42532E-05  1015   0.927E-03
   3 F= -.11703634E+04 E0= -.11703578E+04  d E =-.290463E-02  mag=     0.9984
       N       E                     dE             d eps       ncg     rms          rms(c)
DAV:   1    -0.116329805270E+04    0.33286E-02   -0.10988E+00  1872   0.184E+00    0.376E-01
RMM:   2    -0.116330488683E+04   -0.68341E-02   -0.79364E-02  1593   0.300E-01    0.346E-01
RMM:   3    -0.116330262727E+04    0.22596E-02   -0.29420E-03  1510   0.582E-02    0.306E-01
RMM:   4    -0.116330092449E+04    0.17028E-02   -0.47629E-03  1584   0.760E-02    0.121E-01
RMM:   5    -0.116330089365E+04    0.30839E-04   -0.55395E-04  1482   0.277E-02
   4 F= -.11703625E+04 E0= -.11703571E+04  d E =0.883510E-03  mag=     0.9983
       N       E                     dE             d eps       ncg     rms          rms(c)
DAV:   1    -0.116330199719E+04   -0.10727E-02   -0.35483E-01  1872   0.104E+00    0.203E-01
RMM:   2    -0.116330402265E+04   -0.20255E-02   -0.24583E-02  1595   0.169E-01    0.181E-01
RMM:   3    -0.116330323130E+04    0.79136E-03   -0.90970E-04  1224   0.333E-02    0.154E-01
RMM:   4    -0.116330266225E+04    0.56904E-03   -0.16339E-03  1584   0.442E-02    0.646E-02
RMM:   5    -0.116330263927E+04    0.22985E-04   -0.12000E-04  1049   0.143E-02
   5 F= -.11703644E+04 E0= -.11703589E+04  d E =-.107906E-02  mag=     0.9984
       N       E                     dE             d eps       ncg     rms          rms(c)
DAV:   1    -0.116330214303E+04    0.51922E-03   -0.33427E-01  1872   0.103E+00    0.152E-01
RMM:   2    -0.116330389400E+04   -0.17510E-02   -0.20331E-02  1594   0.160E-01    0.117E-01
RMM:   3    -0.116330337069E+04    0.52330E-03   -0.74165E-04  1195   0.314E-02    0.101E-01
RMM:   4    -0.116330321038E+04    0.16031E-03   -0.49622E-04  1346   0.244E-02    0.607E-02
RMM:   5    -0.116330318524E+04    0.25139E-04   -0.98774E-05  1028   0.134E-02
   6 F= -.11703648E+04 E0= -.11703597E+04  d E =-.313284E-03  mag=     0.9984
       N       E                     dE             d eps       ncg     rms          rms(c)
DAV:   1    -0.116330319208E+04    0.18304E-04   -0.38307E-02  1872   0.346E-01    0.491E-02
RMM:   2    -0.116330339096E+04   -0.19888E-03   -0.22937E-03  1427   0.546E-02    0.358E-02
RMM:   3    -0.116330332730E+04    0.63656E-04   -0.85893E-05  1015   0.121E-02
   7 F= -.11703650E+04 E0= -.11703597E+04  d E =-.532952E-03  mag=     0.9984
