       N       E                     dE             d eps       ncg     rms          rms(c)
DAV:   1     0.523074814017E+04    0.52307E+04   -0.17038E+05  1800   0.919E+02
DAV:   2     0.606332777825E+02   -0.51701E+04   -0.47048E+04  2520   0.219E+02
DAV:   3    -0.117783799689E+04   -0.12385E+04   -0.12305E+04  2124   0.117E+02
DAV:   4    -0.123346854463E+04   -0.55631E+02   -0.55180E+02  2016   0.333E+01
DAV:   5    -0.123581165881E+04   -0.23431E+01   -0.23372E+01  2556   0.676E+00    0.610E+01
RMM:   6    -0.122272656398E+04    0.13085E+02   -0.66397E+00  1769   0.336E+00    0.495E+01
RMM:   7    -0.118189841132E+04    0.40828E+02   -0.57004E+01  1951   0.991E+00    0.301E+01
RMM:   8    -0.117614744865E+04    0.57510E+01   -0.90950E+00  1956   0.679E+00    0.233E+01
RMM:   9    -0.117233185845E+04    0.38156E+01   -0.40186E+01  1914   0.868E+00    0.127E+01
RMM:  10    -0.117217257418E+04    0.15928E+00   -0.30475E+00  1885   0.667E+00    0.945E+00
RMM:  11    -0.117104890245E+04    0.11237E+01   -0.51706E+00  1929   0.384E+00    0.834E+00
RMM:  12    -0.117099842154E+04    0.50481E-01   -0.60456E-01  2060   0.148E+00    0.791E+00
RMM:  13    -0.117083965232E+04    0.15877E+00   -0.15697E+00  2086   0.110E+00    0.442E+00
RMM:  14    -0.117080341445E+04    0.36238E-01   -0.42272E-01  1937   0.647E-01    0.492E+00
RMM:  15    -0.117069095981E+04    0.11245E+00   -0.10924E-01  1997   0.569E-01    0.391E+00
RMM:  16    -0.117072253994E+04   -0.31580E-01   -0.36997E-02  2013   0.285E-01    0.307E+00
RMM:  17    -0.117072183508E+04    0.70486E-03   -0.59008E-03  1529   0.102E-01    0.292E+00
RMM:  18    -0.117071093269E+04    0.10902E-01   -0.49574E-03  1547   0.778E-02    0.265E+00
RMM:  19    -0.117066637834E+04    0.44554E-01   -0.58205E-02  2000   0.185E-01    0.157E+00
RMM:  20    -0.117063278778E+04    0.33591E-01   -0.37609E-02  1917   0.143E-01    0.975E-01
RMM:  21    -0.117062348758E+04    0.93002E-02   -0.13745E-02  1685   0.899E-02    0.651E-01
RMM:  22    -0.117062182577E+04    0.16618E-02   -0.38504E-03  1537   0.623E-02    0.460E-01
RMM:  23    -0.117062219245E+04   -0.36668E-03   -0.51011E-03  1656   0.684E-02    0.143E-01
RMM:  24    -0.117062263976E+04   -0.44732E-03   -0.22757E-03  1306   0.517E-02    0.816E-02
RMM:  25    -0.117062269207E+04   -0.52302E-04   -0.54257E-04  1183   0.386E-02
   1 F= -.11782803E+04 E0= -.11782664E+04  d E =-.117828E+04  mag=     0.1267
       N       E                     dE             d eps       ncg     rms          rms(c)
DAV:   1    -0.117062400237E+04   -0.13626E-02   -0.35075E-01  2016   0.905E-01    0.302E-01
RMM:   2    -0.117062442579E+04   -0.42343E-03   -0.10707E-02  2004   0.151E-01    0.217E-01
RMM:   3    -0.117062417681E+04    0.24898E-03   -0.94853E-04  1438   0.662E-02    0.179E-01
RMM:   4    -0.117062365439E+04    0.52242E-03   -0.36623E-03  2019   0.865E-02    0.771E-02
RMM:   5    -0.117062380681E+04   -0.15242E-03   -0.16850E-04  1103   0.375E-02    0.648E-02
RMM:   6    -0.117062382930E+04   -0.22491E-04   -0.92122E-05  1068   0.272E-02
   2 F= -.11782816E+04 E0= -.11782683E+04  d E =-.129135E-02  mag=     0.2798
       N       E                     dE             d eps       ncg     rms          rms(c)
DAV:   1    -0.117062414217E+04   -0.33536E-03   -0.12782E-02  2052   0.177E-01    0.629E-02
RMM:   2    -0.117062419817E+04   -0.55992E-04   -0.25275E-04  1143   0.258E-02
   3 F= -.11782819E+04 E0= -.11782690E+04  d E =-.162988E-02  mag=     0.3134
       N       E                     dE             d eps       ncg     rms          rms(c)
DAV:   1    -0.117062451149E+04   -0.36932E-03   -0.16125E-01  1836   0.663E-01    0.138E-01
RMM:   2    -0.117062478050E+04   -0.26901E-03   -0.40853E-03  1880   0.107E-01    0.128E-01
RMM:   3    -0.117062473054E+04    0.49958E-04   -0.26222E-04  1172   0.563E-02
   4 F= -.11782823E+04 E0= -.11782699E+04  d E =-.335191E-03  mag=     0.4468
       N       E                     dE             d eps       ncg     rms          rms(c)
DAV:   1    -0.117062505618E+04   -0.27568E-03   -0.33362E-02  1944   0.303E-01    0.670E-02
RMM:   2    -0.117062539619E+04   -0.34001E-03   -0.11234E-03  1820   0.558E-02    0.673E-02
RMM:   3    -0.117062536310E+04    0.33086E-04   -0.75274E-05  1003   0.404E-02
   5 F= -.11782830E+04 E0= -.11782719E+04  d E =-.104705E-02  mag=     0.5144
