       N       E                     dE             d eps       ncg     rms          rms(c)
DAV:   1     0.462387410444E+04    0.46239E+04   -0.17799E+05  1944   0.917E+02
DAV:   2    -0.116160568672E+03   -0.47400E+04   -0.43301E+04  2520   0.205E+02
DAV:   3    -0.119724655389E+04   -0.10811E+04   -0.10756E+04  2088   0.106E+02
DAV:   4    -0.124083546922E+04   -0.43589E+02   -0.43353E+02  2052   0.280E+01
DAV:   5    -0.124193328802E+04   -0.10978E+01   -0.10948E+01  2304   0.411E+00    0.707E+01
RMM:   6    -0.122288185143E+04    0.19051E+02   -0.20214E+01  1584   0.451E+00    0.515E+01
RMM:   7    -0.120204773830E+04    0.20834E+02   -0.15549E+01  1584   0.455E+00    0.385E+01
RMM:   8    -0.117589156308E+04    0.26156E+02   -0.41353E+01  1584   0.734E+00    0.241E+01
RMM:   9    -0.117242177720E+04    0.34698E+01   -0.26194E+01  1584   0.584E+00    0.118E+01
RMM:  10    -0.117361291712E+04   -0.11911E+01   -0.39915E+00  1595   0.238E+00    0.810E+00
RMM:  11    -0.117278841094E+04    0.82451E+00   -0.14570E+00  1584   0.132E+00    0.348E+00
RMM:  12    -0.117251302976E+04    0.27538E+00   -0.50702E-01  1584   0.789E-01    0.127E+00
RMM:  13    -0.117250555174E+04    0.74780E-02   -0.16161E-01  1584   0.453E-01    0.520E-01
RMM:  14    -0.117250338926E+04    0.21625E-02   -0.11970E-02  1591   0.137E-01    0.328E-01
RMM:  15    -0.117250291858E+04    0.47068E-03   -0.46367E-03  1593   0.755E-02    0.222E-01
RMM:  16    -0.117250355099E+04   -0.63242E-03   -0.38177E-03  1585   0.722E-02    0.163E-01
RMM:  17    -0.117250320046E+04    0.35054E-03   -0.87914E-04  1538   0.353E-02    0.740E-02
RMM:  18    -0.117250333927E+04   -0.13882E-03   -0.19648E-04  1114   0.170E-02    0.432E-02
RMM:  19    -0.117250332902E+04    0.10251E-04   -0.83751E-05  1033   0.117E-02
   1 F= -.11796499E+04 E0= -.11796490E+04  d E =-.117965E+04  mag=    -0.9867
       N       E                     dE             d eps       ncg     rms          rms(c)
DAV:   1    -0.117244621714E+04    0.57122E-01   -0.80851E+00  1584   0.390E+00    0.266E+00
RMM:   2    -0.117247714659E+04   -0.30929E-01   -0.35746E-01  1585   0.629E-01    0.250E+00
RMM:   3    -0.117247316039E+04    0.39862E-02   -0.12186E-02  1680   0.930E-02    0.201E+00
RMM:   4    -0.117247094801E+04    0.22124E-02   -0.13551E-02  1584   0.127E-01    0.255E-01
RMM:   5    -0.117247169348E+04   -0.74547E-03   -0.60066E-04  1198   0.241E-02    0.201E-01
RMM:   6    -0.117247178770E+04   -0.94222E-04   -0.20655E-04  1094   0.170E-02
   2 F= -.11796210E+04 E0= -.11796197E+04  d E =0.288632E-01  mag=    -0.9708
       N       E                     dE             d eps       ncg     rms          rms(c)
DAV:   1    -0.117249253223E+04   -0.20839E-01   -0.43681E+00  1584   0.292E+00    0.187E+00
RMM:   2    -0.117251013171E+04   -0.17599E-01   -0.20658E-01  1584   0.460E-01    0.188E+00
RMM:   3    -0.117250815556E+04    0.19762E-02   -0.54319E-03  1453   0.609E-02    0.180E+00
RMM:   4    -0.117250650068E+04    0.16549E-02   -0.78986E-03  1580   0.909E-02    0.629E-01
RMM:   5    -0.117250644500E+04    0.55678E-04   -0.16369E-03  1476   0.435E-02    0.189E-01
RMM:   6    -0.117250645918E+04   -0.14179E-04   -0.21548E-04  1102   0.154E-02
   3 F= -.11796537E+04 E0= -.11796529E+04  d E =-.384873E-02  mag=    -0.9812
