       N       E                     dE             d eps       ncg     rms          rms(c)
DAV:   1     0.493608065378E+04    0.49361E+04   -0.16903E+05  1692   0.987E+02
DAV:   2     0.176220697471E+02   -0.49185E+04   -0.45099E+04  2268   0.219E+02
DAV:   3    -0.117569800713E+04   -0.11933E+04   -0.11866E+04  1872   0.119E+02
DAV:   4    -0.122788647831E+04   -0.52188E+02   -0.51774E+02  1872   0.331E+01
DAV:   5    -0.122914773093E+04   -0.12613E+01   -0.12580E+01  2088   0.484E+00    0.656E+01
RMM:   6    -0.121445598718E+04    0.14692E+02   -0.26128E+01  1440   0.513E+00    0.515E+01
RMM:   7    -0.119663126408E+04    0.17825E+02   -0.10489E+01  1440   0.402E+00    0.404E+01
RMM:   8    -0.116895492536E+04    0.27676E+02   -0.46090E+01  1440   0.835E+00    0.250E+01
RMM:   9    -0.116238566626E+04    0.65693E+01   -0.21929E+01  1440   0.577E+00    0.155E+01
RMM:  10    -0.116446023586E+04   -0.20746E+01   -0.82487E+00  1441   0.356E+00    0.913E+00
RMM:  11    -0.116358847115E+04    0.87176E+00   -0.12629E+00  1490   0.122E+00    0.626E+00
RMM:  12    -0.116315346921E+04    0.43500E+00   -0.59298E-01  1440   0.874E-01    0.426E+00
RMM:  13    -0.116291002964E+04    0.24344E+00   -0.10056E+00  1440   0.121E+00    0.744E-01
RMM:  14    -0.116291445673E+04   -0.44271E-02   -0.26020E-02  1476   0.234E-01    0.500E-01
RMM:  15    -0.116291537206E+04   -0.91534E-03   -0.11275E-02  1440   0.128E-01    0.298E-01
RMM:  16    -0.116291618833E+04   -0.81626E-03   -0.78243E-03  1440   0.110E-01    0.231E-01
RMM:  17    -0.116291575235E+04    0.43597E-03   -0.10243E-03  1376   0.403E-02    0.129E-01
RMM:  18    -0.116291570940E+04    0.42959E-04   -0.92262E-04  1409   0.367E-02
   1 F= -.11701373E+04 E0= -.11701363E+04  d E =-.117014E+04  mag=    -0.9798
       N       E                     dE             d eps       ncg     rms          rms(c)
DAV:   1    -0.116291463962E+04    0.11127E-02   -0.10898E+00  1584   0.160E+00    0.446E-01
RMM:   2    -0.116291611735E+04   -0.14777E-02   -0.20391E-02  1440   0.215E-01    0.427E-01
RMM:   3    -0.116291578767E+04    0.32968E-03   -0.14402E-03  1406   0.477E-02    0.382E-01
RMM:   4    -0.116291481390E+04    0.97377E-03   -0.51151E-03  1440   0.862E-02    0.918E-02
RMM:   5    -0.116291486050E+04   -0.46596E-04   -0.23301E-04   956   0.218E-02
   2 F= -.11701368E+04 E0= -.11701358E+04  d E =0.464732E-03  mag=    -0.9771
       N       E                     dE             d eps       ncg     rms          rms(c)
DAV:   1    -0.116291746743E+04   -0.26535E-02   -0.28666E-01  1620   0.817E-01    0.217E-01
RMM:   2    -0.116291773086E+04   -0.26344E-03   -0.45341E-03  1440   0.103E-01    0.206E-01
RMM:   3    -0.116291759799E+04    0.13288E-03   -0.28318E-04   988   0.228E-02    0.180E-01
RMM:   4    -0.116291732478E+04    0.27321E-03   -0.15318E-03  1440   0.476E-02    0.427E-02
RMM:   5    -0.116291733086E+04   -0.60796E-05   -0.49117E-05   869   0.110E-02
   3 F= -.11701391E+04 E0= -.11701381E+04  d E =-.180645E-02  mag=    -0.9784
       N       E                     dE             d eps       ncg     rms          rms(c)
DAV:   1    -0.116291976530E+04   -0.24405E-02   -0.73881E-01  1512   0.126E+00    0.302E-01
RMM:   2    -0.116292034278E+04   -0.57748E-03   -0.11827E-02  1440   0.170E-01    0.271E-01
RMM:   3    -0.116291964420E+04    0.69857E-03   -0.90475E-04  1384   0.414E-02    0.212E-01
RMM:   4    -0.116291896551E+04    0.67870E-03   -0.37625E-03  1440   0.716E-02    0.568E-02
RMM:   5    -0.116291894925E+04    0.16257E-04   -0.88281E-05   920   0.144E-02
   4 F= -.11701402E+04 E0= -.11701392E+04  d E =-.114285E-02  mag=    -0.9781
       N       E                     dE             d eps       ncg     rms          rms(c)
DAV:   1    -0.116291916495E+04   -0.19945E-03   -0.74426E-02  1584   0.401E-01    0.906E-02
RMM:   2    -0.116291919226E+04   -0.27311E-04   -0.11041E-03  1348   0.514E-02    0.812E-02
RMM:   3    -0.116291907898E+04    0.11329E-03   -0.11454E-04   872   0.156E-02    0.586E-02
RMM:   4    -0.116291899997E+04    0.79008E-04   -0.44522E-04  1116   0.256E-02
   5 F= -.11701404E+04 E0= -.11701394E+04  d E =-.134351E-02  mag=    -0.9783
       N       E                     dE             d eps       ncg     rms          rms(c)
DAV:   1    -0.116292021031E+04   -0.11313E-02   -0.45452E-01  1584   0.102E+00    0.132E-01
RMM:   2    -0.116292071438E+04   -0.50408E-03   -0.77248E-03  1440   0.140E-01    0.132E-01
RMM:   3    -0.116292065580E+04    0.58578E-04   -0.44337E-04  1085   0.297E-02
   6 F= -.11701419E+04 E0= -.11701409E+04  d E =-.145492E-02  mag=    -0.9783
       N       E                     dE             d eps       ncg     rms          rms(c)
DAV:   1    -0.116292044346E+04    0.27092E-03   -0.67783E-02  1584   0.393E-01    0.145E-01
RMM:   2    -0.116292033692E+04    0.10654E-03   -0.10090E-03  1345   0.507E-02    0.136E-01
RMM:   3    -0.116292007396E+04    0.26296E-03   -0.47423E-04  1203   0.273E-02    0.848E-02
RMM:   4    -0.116292004754E+04    0.26426E-04   -0.41092E-04  1097   0.253E-02
   7 F= -.11701412E+04 E0= -.11701402E+04  d E =-.770333E-03  mag=    -0.9784
