       N       E                     dE             d eps       ncg     rms          rms(c)
DAV:   1     0.515535071135E+04    0.51554E+04   -0.17250E+05  1872   0.920E+02
DAV:   2     0.778872595106E+02   -0.50775E+04   -0.46391E+04  2592   0.214E+02
DAV:   3    -0.119038704433E+04   -0.12683E+04   -0.12607E+04  2268   0.118E+02
DAV:   4    -0.124908979303E+04   -0.58703E+02   -0.58372E+02  2268   0.332E+01
DAV:   5    -0.125050387219E+04   -0.14141E+01   -0.14086E+01  2304   0.505E+00    0.744E+01
RMM:   6    -0.123047866275E+04    0.20025E+02   -0.11222E+01  2149   0.540E+00    0.568E+01
RMM:   7    -0.119932366923E+04    0.31155E+02   -0.45014E+01  2105   0.921E+00    0.375E+01
RMM:   8    -0.118369083694E+04    0.15633E+02   -0.26739E+01  2070   0.930E+00    0.259E+01
RMM:   9    -0.117966963573E+04    0.40212E+01   -0.14219E+01  2089   0.677E+00    0.182E+01
RMM:  10    -0.118106968926E+04   -0.14001E+01   -0.13149E+01  2110   0.549E+00    0.114E+01
RMM:  11    -0.118074656143E+04    0.32313E+00   -0.56767E-01  1912   0.281E+00    0.796E+00
RMM:  12    -0.117993315581E+04    0.81341E+00   -0.16463E+00  2072   0.192E+00    0.369E+00
RMM:  13    -0.117982041656E+04    0.11274E+00   -0.53532E-01  2067   0.204E+00    0.155E+00
RMM:  14    -0.117980323162E+04    0.17185E-01   -0.12240E-01  2090   0.705E-01    0.668E-01
RMM:  15    -0.117980268683E+04    0.54480E-03   -0.24670E-02  2019   0.354E-01    0.482E-01
RMM:  16    -0.117980159006E+04    0.10968E-02   -0.84555E-03  1955   0.199E-01    0.308E-01
RMM:  17    -0.117980173258E+04   -0.14252E-03   -0.30067E-03  1351   0.132E-01    0.222E-01
RMM:  18    -0.117980187998E+04   -0.14740E-03   -0.81501E-04  1213   0.155E-01    0.136E-01
RMM:  19    -0.117980195384E+04   -0.73863E-04   -0.57303E-04  1258   0.195E-01
   1 F= -.11871283E+04 E0= -.11871283E+04  d E =-.118713E+04  mag=     0.0030
       N       E                     dE             d eps       ncg     rms          rms(c)
DAV:   1    -0.117980092795E+04    0.95203E-03   -0.66335E-01  1908   0.133E+00    0.656E-01
RMM:   2    -0.117980235924E+04   -0.14313E-02   -0.19769E-02  2215   0.186E-01    0.528E-01
RMM:   3    -0.117980176362E+04    0.59562E-03   -0.18370E-03  1272   0.321E-01    0.536E-01
RMM:   4    -0.117980169237E+04    0.71244E-04   -0.36696E-03  1893   0.147E-01    0.282E-01
RMM:   5    -0.117980159676E+04    0.95616E-04   -0.46408E-04  1233   0.122E-01
   2 F= -.11871287E+04 E0= -.11871287E+04  d E =-.386766E-03  mag=    -0.0002
       N       E                     dE             d eps       ncg     rms          rms(c)
DAV:   1    -0.117980265871E+04   -0.96634E-03   -0.11049E-01  2052   0.541E-01    0.163E-01
RMM:   2    -0.117980274563E+04   -0.86922E-04   -0.24900E-03  2027   0.702E-02    0.214E-01
RMM:   3    -0.117980276552E+04   -0.19893E-04   -0.71030E-04  1250   0.197E-01
   3 F= -.11871296E+04 E0= -.11871296E+04  d E =-.125781E-02  mag=    -0.0000
       N       E                     dE             d eps       ncg     rms          rms(c)
DAV:   1    -0.117980235887E+04    0.38676E-03   -0.29935E-01  1944   0.101E+00    0.348E-01
RMM:   2    -0.117980269693E+04   -0.33806E-03   -0.99395E-03  2091   0.156E-01    0.398E-01
RMM:   3    -0.117980279265E+04   -0.95717E-04   -0.30023E-03  1271   0.422E-01    0.328E-01
RMM:   4    -0.117980210975E+04    0.68290E-03   -0.28638E-04  1165   0.111E-01    0.257E-01
RMM:   5    -0.117980161039E+04    0.49936E-03   -0.17369E-03  1604   0.146E-01    0.198E-01
RMM:   6    -0.117980162782E+04   -0.17426E-04   -0.95741E-04  1426   0.154E-01
   4 F= -.11871278E+04 E0= -.11871278E+04  d E =0.176957E-02  mag=     0.0000
       N       E                     dE             d eps       ncg     rms          rms(c)
DAV:   1    -0.117980338770E+04   -0.17773E-02   -0.16899E-01  1872   0.789E-01    0.158E-01
RMM:   2    -0.117980359487E+04   -0.20717E-03   -0.55103E-03  2036   0.114E-01    0.264E-01
RMM:   3    -0.117980371401E+04   -0.11915E-03   -0.15820E-03  1264   0.322E-01    0.142E-01
RMM:   4    -0.117980349536E+04    0.21866E-03   -0.48076E-05  1101   0.859E-02    0.124E-01
RMM:   5    -0.117980328800E+04    0.20736E-03   -0.11224E-04  1106   0.107E-01    0.114E-01
RMM:   6    -0.117980315957E+04    0.12843E-03   -0.26561E-04  1217   0.124E-01    0.785E-02
RMM:   7    -0.117980309590E+04    0.63671E-04   -0.25362E-04  1204   0.140E-01
   5 F= -.11871297E+04 E0= -.11871297E+04  d E =-.155126E-03  mag=     0.0000
