       N       E                     dE             d eps       ncg     rms          rms(c)
DAV:   1     0.483662781900E+04    0.48366E+04   -0.17474E+05  1824   0.936E+02
DAV:   2    -0.569314717875E+02   -0.48936E+04   -0.44560E+04  2464   0.214E+02
DAV:   3    -0.117998133162E+04   -0.11230E+04   -0.11178E+04  2016   0.112E+02
DAV:   4    -0.122663201007E+04   -0.46651E+02   -0.46406E+02  1984   0.305E+01
DAV:   5    -0.122777587148E+04   -0.11439E+01   -0.11409E+01  2240   0.451E+00    0.690E+01
RMM:   6    -0.120505970911E+04    0.22716E+02   -0.34807E+01  1550   0.773E+00    0.643E+01
RMM:   7    -0.119765552922E+04    0.74042E+01   -0.93611E+00  1553   0.393E+00    0.508E+01
RMM:   8    -0.118271410718E+04    0.14941E+02   -0.11897E+01  1547   0.471E+00    0.360E+01
RMM:   9    -0.116119199963E+04    0.21522E+02   -0.38208E+01  1688   0.773E+00    0.247E+01
RMM:  10    -0.115660289509E+04    0.45891E+01   -0.12772E+01  1572   0.532E+00    0.185E+01
RMM:  11    -0.115770847307E+04   -0.11056E+01   -0.43107E+00  1552   0.299E+00    0.138E+01
RMM:  12    -0.115784921152E+04   -0.14074E+00   -0.42421E+00  1554   0.300E+00    0.746E+00
RMM:  13    -0.115774484654E+04    0.10436E+00   -0.50429E-01  1585   0.117E+00    0.595E+00
RMM:  14    -0.115750841337E+04    0.23643E+00   -0.18043E+00  1569   0.171E+00    0.271E+00
RMM:  15    -0.115763373027E+04   -0.12532E+00   -0.15203E-01  1538   0.592E-01    0.208E+00
RMM:  16    -0.115763609792E+04   -0.23676E-02   -0.19601E-02  1682   0.208E-01    0.204E+00
RMM:  17    -0.115764550858E+04   -0.94107E-02   -0.50856E-03  1650   0.938E-02    0.199E+00
RMM:  18    -0.115765161703E+04   -0.61085E-02   -0.13994E-03  1763   0.474E-02    0.198E+00
RMM:  19    -0.115768519973E+04   -0.33583E-01   -0.15810E-02  1614   0.154E-01    0.218E+00
RMM:  20    -0.115774680061E+04   -0.61601E-01   -0.78817E-02  1995   0.327E-01    0.186E+00
RMM:  21    -0.115774746904E+04   -0.66843E-03   -0.21379E-02  1698   0.199E-01    0.113E+00
RMM:  22    -0.115776846529E+04   -0.20996E-01   -0.46249E-02  1837   0.272E-01    0.112E+00
RMM:  23    -0.115777140236E+04   -0.29371E-02   -0.40947E-03  1593   0.964E-02    0.728E-01
RMM:  24    -0.115776925155E+04    0.21508E-02   -0.39336E-03  1589   0.822E-02    0.442E-01
RMM:  25    -0.115777032616E+04   -0.10746E-02   -0.58544E-04  1591   0.361E-02    0.386E-01
RMM:  26    -0.115777085346E+04   -0.52731E-03   -0.31898E-04  1653   0.247E-02    0.287E-01
RMM:  27    -0.115777152337E+04   -0.66991E-03   -0.69403E-04  1633   0.290E-02    0.136E-01
RMM:  28    -0.115777169087E+04   -0.16750E-03   -0.34066E-04  1668   0.200E-02    0.642E-02
RMM:  29    -0.115777165324E+04    0.37631E-04   -0.57597E-05  1610   0.108E-02    0.391E-02
RMM:  30    -0.115777170235E+04   -0.49114E-04   -0.44945E-05  1578   0.839E-03    0.202E-02
RMM:  31    -0.115777168301E+04    0.19337E-04   -0.83347E-06  1362   0.456E-03    0.216E-02
RMM:  32    -0.115777170191E+04   -0.18894E-04   -0.55696E-06  1234   0.346E-03    0.143E-02
RMM:  33    -0.115777171293E+04   -0.11020E-04   -0.63355E-06  1186   0.311E-03    0.417E-03
RMM:  34    -0.115777171315E+04   -0.21627E-06   -0.61085E-07  1025   0.136E-03
   1 F= -.11577717E+04 E0= -.11577717E+04  d E =-.115777E+04  mag=    -0.0002
       N       E                     dE             d eps       ncg     rms          rms(c)
DAV:   1    -0.115756984280E+04    0.20187E+00   -0.37817E+01  1696   0.887E+00    0.166E+00
RMM:   2    -0.115763163063E+04   -0.61788E-01   -0.86027E-01  1555   0.158E+00    0.172E+00
RMM:   3    -0.115764564399E+04   -0.14013E-01   -0.20256E-01  1726   0.593E-01    0.156E+00
RMM:   4    -0.115763223793E+04    0.13406E-01   -0.39184E-02  1684   0.268E-01    0.142E+00
RMM:   5    -0.115761117643E+04    0.21061E-01   -0.50231E-02  1565   0.260E-01    0.942E-01
RMM:   6    -0.115760923135E+04    0.19451E-02   -0.57179E-02  1578   0.273E-01    0.603E-01
RMM:   7    -0.115760883760E+04    0.39375E-03   -0.57466E-03  1697   0.113E-01    0.567E-01
RMM:   8    -0.115760798687E+04    0.85073E-03   -0.20656E-03  1567   0.624E-02    0.365E-01
RMM:   9    -0.115760802798E+04   -0.41114E-04   -0.16357E-03  1587   0.498E-02    0.219E-01
RMM:  10    -0.115760765090E+04    0.37709E-03   -0.44614E-04  1615   0.278E-02    0.180E-01
RMM:  11    -0.115760753282E+04    0.11807E-03   -0.36454E-04  1563   0.230E-02    0.125E-01
RMM:  12    -0.115760750932E+04    0.23498E-04   -0.20504E-04  1599   0.168E-02    0.826E-02
RMM:  13    -0.115760752049E+04   -0.11167E-04   -0.87226E-05  1721   0.121E-02    0.575E-02
RMM:  14    -0.115760751479E+04    0.57054E-05   -0.18771E-05  1533   0.590E-03    0.394E-02
RMM:  15    -0.115760751194E+04    0.28463E-05   -0.32876E-05  1527   0.629E-03    0.180E-02
RMM:  16    -0.115760751272E+04   -0.78224E-06   -0.52318E-06  1281   0.340E-03
   2 F= -.11576075E+04 E0= -.11576070E+04  d E =0.164200E+00  mag=     0.0000
       N       E                     dE             d eps       ncg     rms          rms(c)
DAV:   1    -0.115780911826E+04   -0.20161E+00   -0.17636E+01  1664   0.616E+00    0.114E+00
RMM:   2    -0.115783100003E+04   -0.21882E-01   -0.34958E-01  1561   0.104E+00    0.115E+00
RMM:   3    -0.115783426151E+04   -0.32615E-02   -0.71914E-02  1674   0.379E-01    0.104E+00
RMM:   4    -0.115782966725E+04    0.45943E-02   -0.13802E-02  1696   0.167E-01    0.970E-01
RMM:   5    -0.115782004010E+04    0.96271E-02   -0.18550E-02  1564   0.162E-01    0.625E-01
RMM:   6    -0.115781820350E+04    0.18366E-02   -0.28426E-02  1613   0.191E-01    0.349E-01
RMM:   7    -0.115781781048E+04    0.39303E-03   -0.21506E-03  1617   0.755E-02    0.323E-01
RMM:   8    -0.115781784927E+04   -0.38794E-04   -0.51669E-04  1702   0.337E-02    0.249E-01
RMM:   9    -0.115781765844E+04    0.19083E-03   -0.75876E-04  1576   0.309E-02    0.148E-01
RMM:  10    -0.115781764651E+04    0.11934E-04   -0.17261E-04  1680   0.190E-02    0.104E-01
RMM:  11    -0.115781761502E+04    0.31491E-04   -0.81177E-05  1550   0.104E-02    0.762E-02
RMM:  12    -0.115781761723E+04   -0.22118E-05   -0.63520E-05  1556   0.939E-03    0.373E-02
RMM:  13    -0.115781761823E+04   -0.10000E-05   -0.18988E-05  1550   0.630E-03    0.237E-02
RMM:  14    -0.115781761908E+04   -0.84769E-06   -0.82286E-06  1432   0.388E-03
   3 F= -.11578176E+04 E0= -.11578176E+04  d E =-.459059E-01  mag=     0.0000
       N       E                     dE             d eps       ncg     rms          rms(c)
DAV:   1    -0.115781030309E+04    0.73151E-02   -0.45486E+00  1632   0.384E+00    0.527E-01
RMM:   2    -0.115782157374E+04   -0.11271E-01   -0.12951E-01  1558   0.593E-01    0.553E-01
RMM:   3    -0.115782298515E+04   -0.14114E-02   -0.20064E-02  1659   0.211E-01    0.502E-01
RMM:   4    -0.115782244407E+04    0.54108E-03   -0.30402E-03  1717   0.822E-02    0.473E-01
RMM:   5    -0.115782102104E+04    0.14230E-02   -0.51169E-03  1581   0.816E-02    0.315E-01
RMM:   6    -0.115782138112E+04   -0.36008E-03   -0.58810E-03  1614   0.883E-02    0.230E-01
RMM:   7    -0.115782113645E+04    0.24466E-03   -0.41970E-04  1632   0.352E-02    0.204E-01
RMM:   8    -0.115782089074E+04    0.24571E-03   -0.14441E-03  1614   0.385E-02    0.891E-02
RMM:   9    -0.115782090602E+04   -0.15275E-04   -0.10249E-04  1627   0.174E-02    0.824E-02
RMM:  10    -0.115782090648E+04   -0.45927E-06   -0.11674E-04  1592   0.147E-02    0.444E-02
RMM:  11    -0.115782091118E+04   -0.46978E-05   -0.30570E-05  1696   0.755E-03    0.327E-02
RMM:  12    -0.115782090859E+04    0.25841E-05   -0.72344E-06  1381   0.359E-03    0.271E-02
RMM:  13    -0.115782090776E+04    0.83664E-06   -0.11676E-05  1540   0.461E-03    0.110E-02
RMM:  14    -0.115782090714E+04    0.61336E-06   -0.62095E-06  1329   0.292E-03
   4 F= -.11578209E+04 E0= -.11578209E+04  d E =-.328807E-02  mag=     0.0000
       N       E                     dE             d eps       ncg     rms          rms(c)
DAV:   1    -0.115782622620E+04   -0.53184E-02   -0.93716E-01  1632   0.174E+00    0.245E-01
RMM:   2    -0.115782851355E+04   -0.22873E-02   -0.26762E-02  1562   0.269E-01    0.251E-01
RMM:   3    -0.115782878679E+04   -0.27325E-03   -0.41223E-03  1669   0.955E-02    0.224E-01
RMM:   4    -0.115782866432E+04    0.12247E-03   -0.60408E-04  1706   0.369E-02    0.208E-01
RMM:   5    -0.115782840881E+04    0.25551E-03   -0.13147E-03  1604   0.406E-02    0.127E-01
RMM:   6    -0.115782849735E+04   -0.88534E-04   -0.82772E-04  1602   0.350E-02    0.955E-02
RMM:   7    -0.115782846322E+04    0.34129E-04   -0.68193E-05  1654   0.143E-02    0.845E-02
RMM:   8    -0.115782843312E+04    0.30100E-04   -0.33974E-04  1654   0.178E-02    0.347E-02
RMM:   9    -0.115782843486E+04   -0.17388E-05   -0.22469E-05  1523   0.785E-03    0.305E-02
RMM:  10    -0.115782843780E+04   -0.29403E-05   -0.15718E-05  1517   0.554E-03    0.173E-02
RMM:  11    -0.115782843849E+04   -0.69655E-06   -0.71149E-06  1401   0.363E-03
   5 F= -.11578284E+04 E0= -.11578284E+04  d E =-.108194E-01  mag=     0.0000
       N       E                     dE             d eps       ncg     rms          rms(c)
DAV:   1    -0.115782288115E+04    0.55566E-02   -0.16052E+00  1600   0.287E+00    0.351E-01
RMM:   2    -0.115783079882E+04   -0.79177E-02   -0.89289E-02  1569   0.407E-01    0.282E-01
RMM:   3    -0.115783150864E+04   -0.70983E-03   -0.11517E-02  1659   0.145E-01    0.244E-01
RMM:   4    -0.115783133415E+04    0.17449E-03   -0.14898E-03  1686   0.558E-02    0.205E-01
RMM:   5    -0.115783105671E+04    0.27744E-03   -0.21668E-03  1563   0.560E-02    0.954E-02
RMM:   6    -0.115783107894E+04   -0.22232E-04   -0.55223E-04  1646   0.334E-02    0.669E-02
RMM:   7    -0.115783110721E+04   -0.28274E-04   -0.91265E-05  1606   0.155E-02    0.432E-02
RMM:   8    -0.115783113432E+04   -0.27108E-04   -0.95214E-05  1573   0.121E-02    0.220E-02
RMM:   9    -0.115783113267E+04    0.16540E-05   -0.38257E-05  1655   0.809E-03    0.136E-02
RMM:  10    -0.115783113212E+04    0.54391E-06   -0.10337E-05  1545   0.468E-03    0.808E-03
RMM:  11    -0.115783113138E+04    0.74365E-06   -0.37245E-06  1245   0.303E-03
   6 F= -.11578311E+04 E0= -.11578311E+04  d E =-.269289E-02  mag=     0.0000
       N       E                     dE             d eps       ncg     rms          rms(c)
DAV:   1    -0.115783135135E+04   -0.21923E-03   -0.21541E-01  1664   0.105E+00    0.130E-01
RMM:   2    -0.115783237007E+04   -0.10187E-02   -0.12001E-02  1569   0.149E-01    0.106E-01
RMM:   3    -0.115783246850E+04   -0.98434E-04   -0.15441E-03  1658   0.528E-02    0.901E-02
RMM:   4    -0.115783245016E+04    0.18342E-04   -0.20125E-04  1678   0.205E-02    0.748E-02
RMM:   5    -0.115783243726E+04    0.12900E-04   -0.31961E-04  1564   0.216E-02    0.337E-02
RMM:   6    -0.115783244977E+04   -0.12508E-04   -0.68580E-05  1668   0.121E-02    0.247E-02
RMM:   7    -0.115783246053E+04   -0.10759E-04   -0.14062E-05  1529   0.572E-03    0.152E-02
RMM:   8    -0.115783246672E+04   -0.61920E-05   -0.10807E-05  1503   0.429E-03    0.824E-03
RMM:   9    -0.115783246654E+04    0.18125E-06   -0.49912E-06  1320   0.304E-03
   7 F= -.11578325E+04 E0= -.11578325E+04  d E =-.402805E-02  mag=     0.0000
       N       E                     dE             d eps       ncg     rms          rms(c)
DAV:   1    -0.115782740568E+04    0.50610E-02   -0.83111E-01  1664   0.232E+00    0.283E-01
RMM:   2    -0.115783379401E+04   -0.63883E-02   -0.71337E-02  1559   0.321E-01    0.192E-01
RMM:   3    -0.115783438400E+04   -0.58999E-03   -0.84322E-03  1645   0.113E-01    0.168E-01
RMM:   4    -0.115783434613E+04    0.37873E-04   -0.92830E-04  1656   0.435E-02    0.131E-01
RMM:   5    -0.115783423738E+04    0.10875E-03   -0.10093E-03  1561   0.408E-02    0.596E-02
RMM:   6    -0.115783432548E+04   -0.88098E-04   -0.22309E-04  1698   0.225E-02    0.398E-02
RMM:   7    -0.115783436270E+04   -0.37223E-04   -0.41001E-05  1613   0.102E-02    0.260E-02
RMM:   8    -0.115783437691E+04   -0.14213E-04   -0.32421E-05  1544   0.721E-03    0.137E-02
RMM:   9    -0.115783437721E+04   -0.29722E-06   -0.20297E-05  1605   0.577E-03    0.787E-03
RMM:  10    -0.115783437709E+04    0.11889E-06   -0.29701E-06  1123   0.300E-03
   8 F= -.11578344E+04 E0= -.11578344E+04  d E =-.191055E-02  mag=     0.0000
       N       E                     dE             d eps       ncg     rms          rms(c)
DAV:   1    -0.115783417505E+04    0.20216E-03   -0.48235E-02  1728   0.559E-01    0.682E-02
RMM:   2    -0.115783451226E+04   -0.33721E-03   -0.41458E-03  1560   0.772E-02    0.464E-02
RMM:   3    -0.115783455181E+04   -0.39557E-04   -0.48717E-04  1639   0.272E-02    0.402E-02
RMM:   4    -0.115783456187E+04   -0.10061E-04   -0.55637E-05  1652   0.107E-02    0.312E-02
RMM:   5    -0.115783456366E+04   -0.17826E-05   -0.63846E-05  1552   0.103E-02    0.137E-02
RMM:   6    -0.115783457704E+04   -0.13384E-04   -0.12417E-05  1586   0.556E-03    0.900E-03
RMM:   7    -0.115783458182E+04   -0.47755E-05   -0.27594E-06  1102   0.297E-03    0.591E-03
RMM:   8    -0.115783458254E+04   -0.72511E-06   -0.16032E-06  1030   0.184E-03
   9 F= -.11578346E+04 E0= -.11578346E+04  d E =-.211600E-02  mag=     0.0000
       N       E                     dE             d eps       ncg     rms          rms(c)
DAV:   1    -0.115783051614E+04    0.40657E-02   -0.50757E-01  1696   0.191E+00    0.230E-01
RMM:   2    -0.115783520228E+04   -0.46861E-02   -0.51839E-02  1564   0.253E-01    0.137E-01
RMM:   3    -0.115783570226E+04   -0.49998E-03   -0.58425E-03  1641   0.870E-02    0.121E-01
RMM:   4    -0.115783577449E+04   -0.72230E-04   -0.50993E-04  1654   0.321E-02    0.875E-02
RMM:   5    -0.115783579372E+04   -0.19230E-04   -0.35598E-04  1578   0.254E-02    0.424E-02
RMM:   6    -0.115783588000E+04   -0.86280E-04   -0.77458E-05  1696   0.141E-02    0.232E-02
RMM:   7    -0.115783590352E+04   -0.23516E-04   -0.19145E-05  1600   0.684E-03    0.152E-02
RMM:   8    -0.115783590612E+04   -0.26016E-05   -0.11734E-05  1512   0.435E-03    0.868E-03
RMM:   9    -0.115783590704E+04   -0.92144E-06   -0.69902E-06  1476   0.350E-03
  10 F= -.11578359E+04 E0= -.11578359E+04  d E =-.132450E-02  mag=     0.0000
       N       E                     dE             d eps       ncg     rms          rms(c)
DAV:   1    -0.115783585495E+04    0.51166E-04   -0.69373E-03  1760   0.224E-01    0.266E-02
RMM:   2    -0.115783590861E+04   -0.53654E-04   -0.70803E-04  1564   0.295E-02    0.163E-02
RMM:   3    -0.115783591751E+04   -0.89035E-05   -0.79690E-05  1616   0.102E-02    0.147E-02
RMM:   4    -0.115783592212E+04   -0.46117E-05   -0.68696E-06  1241   0.390E-03    0.105E-02
RMM:   5    -0.115783592451E+04   -0.23914E-05   -0.52610E-06  1393   0.325E-03    0.471E-03
RMM:   6    -0.115783592756E+04   -0.30428E-05   -0.13221E-06   990   0.197E-03    0.232E-03
RMM:   7    -0.115783592791E+04   -0.35687E-06   -0.33896E-07   963   0.119E-03
  11 F= -.11578359E+04 E0= -.11578359E+04  d E =-.134537E-02  mag=     0.0000
       N       E                     dE             d eps       ncg     rms          rms(c)
DAV:   1    -0.115783218386E+04    0.37437E-02   -0.45544E-01  1728   0.181E+00    0.216E-01
RMM:   2    -0.115783624434E+04   -0.40605E-02   -0.45309E-02  1566   0.234E-01    0.130E-01
RMM:   3    -0.115783667464E+04   -0.43030E-03   -0.50078E-03  1636   0.809E-02    0.115E-01
RMM:   4    -0.115783675699E+04   -0.82351E-04   -0.41855E-04  1656   0.300E-02    0.855E-02
RMM:   5    -0.115783678962E+04   -0.32633E-04   -0.32122E-04  1583   0.245E-02    0.403E-02
RMM:   6    -0.115783686734E+04   -0.77720E-04   -0.66893E-05  1689   0.130E-02    0.226E-02
RMM:   7    -0.115783689326E+04   -0.25922E-04   -0.17626E-05  1598   0.666E-03    0.141E-02
RMM:   8    -0.115783689601E+04   -0.27489E-05   -0.10754E-05  1516   0.432E-03    0.767E-03
RMM:   9    -0.115783689628E+04   -0.27104E-06   -0.60736E-06  1450   0.327E-03
  12 F= -.11578369E+04 E0= -.11578369E+04  d E =-.968370E-03  mag=     0.0000
