       N       E                     dE             d eps       ncg     rms          rms(c)
DAV:   1     0.483704356203E+04    0.48370E+04   -0.17188E+05  1824   0.929E+02
DAV:   2    -0.508820844929E+02   -0.48879E+04   -0.44379E+04  2464   0.213E+02
DAV:   3    -0.118116773134E+04   -0.11303E+04   -0.11251E+04  1984   0.112E+02
DAV:   4    -0.123049659272E+04   -0.49329E+02   -0.49040E+02  1984   0.328E+01
DAV:   5    -0.123195970682E+04   -0.14631E+01   -0.14601E+01  2304   0.499E+00    0.697E+01
RMM:   6    -0.121297339303E+04    0.18986E+02   -0.12070E+01  1585   0.435E+00    0.511E+01
RMM:   7    -0.119051586020E+04    0.22458E+02   -0.35254E+01  1573   0.684E+00    0.373E+01
RMM:   8    -0.117973876293E+04    0.10777E+02   -0.10957E+01  1594   0.486E+00    0.316E+01
RMM:   9    -0.116341476166E+04    0.16324E+02   -0.31566E+01  1658   0.704E+00    0.193E+01
RMM:  10    -0.116336794574E+04    0.46816E-01   -0.16154E+01  1543   0.557E+00    0.943E+00
RMM:  11    -0.116395297656E+04   -0.58503E+00   -0.34479E+00  1842   0.303E+00    0.769E+00
RMM:  12    -0.116339081160E+04    0.56216E+00   -0.51452E-01  1540   0.111E+00    0.541E+00
RMM:  13    -0.116334177140E+04    0.49040E-01   -0.15326E+00  1540   0.156E+00    0.121E+00
RMM:  14    -0.116339945978E+04   -0.57688E-01   -0.19625E-01  1549   0.719E-01    0.686E-01
RMM:  15    -0.116340984415E+04   -0.10384E-01   -0.72995E-02  1746   0.381E-01    0.526E-01
RMM:  16    -0.116341254869E+04   -0.27045E-02   -0.12990E-02  1648   0.185E-01    0.393E-01
RMM:  17    -0.116341473411E+04   -0.21854E-02   -0.69136E-03  1745   0.108E-01    0.282E-01
RMM:  18    -0.116341549132E+04   -0.75721E-03   -0.21048E-03  1607   0.657E-02    0.190E-01
RMM:  19    -0.116341691894E+04   -0.14276E-02   -0.89544E-04  1578   0.469E-02    0.100E-01
RMM:  20    -0.116341737305E+04   -0.45411E-03   -0.42953E-04  1615   0.307E-02    0.755E-02
RMM:  21    -0.116341744356E+04   -0.70510E-04   -0.20888E-04  1577   0.218E-02    0.466E-02
RMM:  22    -0.116341744900E+04   -0.54311E-05   -0.80803E-05  1808   0.131E-02    0.257E-02
RMM:  23    -0.116341744932E+04   -0.32932E-06   -0.16654E-05  1574   0.571E-03    0.180E-02
RMM:  24    -0.116341744598E+04    0.33455E-05   -0.15673E-05  1515   0.520E-03    0.713E-03
RMM:  25    -0.116341744669E+04   -0.71547E-06   -0.31349E-06  1119   0.287E-03
   1 F= -.11634174E+04 E0= -.11634174E+04  d E =-.116342E+04  mag=     1.0000
       N       E                     dE             d eps       ncg     rms          rms(c)
DAV:   1    -0.116337081992E+04    0.46626E-01   -0.16721E+01  1792   0.630E+00    0.110E+00
RMM:   2    -0.116340285270E+04   -0.32033E-01   -0.41347E-01  1589   0.111E+00    0.168E+00
RMM:   3    -0.116341389550E+04   -0.11043E-01   -0.11420E-01  1876   0.460E-01    0.152E+00
RMM:   4    -0.116341361617E+04    0.27934E-03   -0.21045E-02  1888   0.170E-01    0.155E+00
RMM:   5    -0.116340796903E+04    0.56471E-02   -0.69608E-03  1550   0.100E-01    0.148E+00
RMM:   6    -0.116340996517E+04   -0.19961E-02   -0.67654E-02  1575   0.285E-01    0.139E+00
RMM:   7    -0.116341410266E+04   -0.41375E-02   -0.19783E-02  1651   0.180E-01    0.143E+00
RMM:   8    -0.116341412401E+04   -0.21348E-04   -0.29305E-03  1969   0.804E-02    0.139E+00
RMM:   9    -0.116341021640E+04    0.39076E-02   -0.29562E-03  1601   0.637E-02    0.131E+00
RMM:  10    -0.116341105747E+04   -0.84106E-03   -0.53267E-04  1704   0.356E-02    0.126E+00
RMM:  11    -0.116340952121E+04    0.15363E-02   -0.52960E-04  1599   0.294E-02    0.119E+00
RMM:  12    -0.116340781892E+04    0.17023E-02   -0.90014E-04  1614   0.336E-02    0.107E+00
RMM:  13    -0.116340789582E+04   -0.76896E-04   -0.85151E-05  1747   0.150E-02    0.103E+00
RMM:  14    -0.116340729188E+04    0.60394E-03   -0.14504E-04  1578   0.141E-02    0.952E-01
RMM:  15    -0.116340669458E+04    0.59729E-03   -0.18520E-04  1639   0.151E-02    0.859E-01
RMM:  16    -0.116340629617E+04    0.39841E-03   -0.11719E-04  1754   0.124E-02    0.789E-01
RMM:  17    -0.116340563244E+04    0.66374E-03   -0.26486E-04  1891   0.178E-02    0.659E-01
RMM:  18    -0.116340497122E+04    0.66121E-03   -0.42266E-04  2017   0.220E-02    0.500E-01
RMM:  19    -0.116340451788E+04    0.45334E-03   -0.42492E-04  2054   0.217E-02    0.335E-01
RMM:  20    -0.116340423097E+04    0.28691E-03   -0.51649E-04  2120   0.238E-02    0.149E-01
RMM:  21    -0.116340418494E+04    0.46027E-04   -0.16636E-04  1868   0.133E-02    0.695E-02
RMM:  22    -0.116340418159E+04    0.33558E-05   -0.36985E-05  1661   0.715E-03    0.334E-02
RMM:  23    -0.116340418217E+04   -0.58382E-06   -0.51274E-06  1243   0.374E-03
   2 F= -.11634042E+04 E0= -.11634041E+04  d E =0.132645E-01  mag=     1.0017
       N       E                     dE             d eps       ncg     rms          rms(c)
DAV:   1    -0.116343019841E+04   -0.26017E-01   -0.52536E+00  1792   0.354E+00    0.634E-01
RMM:   2    -0.116343866951E+04   -0.84711E-02   -0.11901E-01  1551   0.626E-01    0.920E-01
RMM:   3    -0.116344118333E+04   -0.25138E-02   -0.29499E-02  1802   0.261E-01    0.812E-01
RMM:   4    -0.116344086883E+04    0.31450E-03   -0.63367E-03  1867   0.104E-01    0.832E-01
RMM:   5    -0.116343935492E+04    0.15139E-02   -0.22630E-03  1541   0.602E-02    0.724E-01
RMM:   6    -0.116343950853E+04   -0.15361E-03   -0.15410E-02  1647   0.137E-01    0.571E-01
RMM:   7    -0.116343926201E+04    0.24652E-03   -0.19938E-03  1815   0.650E-02    0.502E-01
RMM:   8    -0.116343915231E+04    0.10970E-03   -0.41597E-04  1864   0.268E-02    0.454E-01
RMM:   9    -0.116343890275E+04    0.24956E-03   -0.45544E-04  1582   0.255E-02    0.387E-01
RMM:  10    -0.116343885647E+04    0.46282E-04   -0.25293E-04  1713   0.197E-02    0.297E-01
RMM:  11    -0.116343882544E+04    0.31028E-04   -0.41071E-05  1735   0.892E-03    0.280E-01
RMM:  12    -0.116343879136E+04    0.34081E-04   -0.18566E-05  1519   0.527E-03    0.249E-01
RMM:  13    -0.116343872550E+04    0.65859E-04   -0.93392E-05  1676   0.106E-02    0.174E-01
RMM:  14    -0.116343872096E+04    0.45418E-05   -0.11804E-05  1499   0.478E-03    0.163E-01
RMM:  15    -0.116343871188E+04    0.90800E-05   -0.51971E-06  1257   0.335E-03    0.143E-01
RMM:  16    -0.116343868537E+04    0.26506E-04   -0.52043E-05  1829   0.792E-03    0.668E-02
RMM:  17    -0.116343868269E+04    0.26843E-05   -0.11242E-05  1474   0.448E-03    0.417E-02
RMM:  18    -0.116343868179E+04    0.90136E-06   -0.68299E-06  1361   0.365E-03
   3 F= -.11634387E+04 E0= -.11634386E+04  d E =-.212351E-01  mag=     1.0006
       N       E                     dE             d eps       ncg     rms          rms(c)
DAV:   1    -0.116344171658E+04   -0.30339E-02   -0.38720E+00  1632   0.312E+00    0.487E-01
RMM:   2    -0.116344572609E+04   -0.40095E-02   -0.55268E-02  1542   0.464E-01    0.607E-01
RMM:   3    -0.116344755885E+04   -0.18328E-02   -0.19640E-02  1838   0.211E-01    0.524E-01
RMM:   4    -0.116344715922E+04    0.39963E-03   -0.27308E-03  1799   0.757E-02    0.518E-01
RMM:   5    -0.116344598055E+04    0.11787E-02   -0.31823E-03  1567   0.625E-02    0.453E-01
RMM:   6    -0.116344672707E+04   -0.74652E-03   -0.90263E-03  1712   0.102E-01    0.404E-01
RMM:   7    -0.116344530156E+04    0.14255E-02   -0.12786E-03  1583   0.494E-02    0.322E-01
RMM:   8    -0.116344516198E+04    0.13958E-03   -0.82458E-04  1694   0.359E-02    0.265E-01
RMM:   9    -0.116344504103E+04    0.12095E-03   -0.25410E-04  1710   0.212E-02    0.222E-01
RMM:  10    -0.116344495000E+04    0.91030E-04   -0.22847E-04  1633   0.179E-02    0.158E-01
RMM:  11    -0.116344494177E+04    0.82278E-05   -0.27204E-05  1675   0.920E-03    0.140E-01
RMM:  12    -0.116344490068E+04    0.41093E-04   -0.44448E-05  1575   0.850E-03    0.932E-02
RMM:  13    -0.116344486589E+04    0.34786E-04   -0.76807E-05  1673   0.942E-03    0.650E-02
RMM:  14    -0.116344486401E+04    0.18833E-05   -0.12562E-05  1597   0.523E-03    0.545E-02
RMM:  15    -0.116344486184E+04    0.21727E-05   -0.20464E-06  1076   0.270E-03    0.471E-02
RMM:  16    -0.116344485558E+04    0.62535E-05   -0.87851E-06  1426   0.357E-03    0.249E-02
RMM:  17    -0.116344485345E+04    0.21367E-05   -0.73045E-06  1387   0.356E-03    0.132E-02
RMM:  18    -0.116344485321E+04    0.23900E-06   -0.20458E-06  1072   0.269E-03
   4 F= -.11634449E+04 E0= -.11634448E+04  d E =-.617142E-02  mag=     1.0009
       N       E                     dE             d eps       ncg     rms          rms(c)
DAV:   1    -0.116344717620E+04   -0.23227E-02   -0.49871E-01  1600   0.112E+00    0.181E-01
RMM:   2    -0.116344768469E+04   -0.50850E-03   -0.71769E-03  1541   0.167E-01    0.218E-01
RMM:   3    -0.116344791740E+04   -0.23271E-03   -0.25856E-03  1843   0.763E-02    0.186E-01
RMM:   4    -0.116344786008E+04    0.57324E-04   -0.33320E-04  1787   0.269E-02    0.183E-01
RMM:   5    -0.116344771054E+04    0.14954E-03   -0.48796E-04  1565   0.244E-02    0.155E-01
RMM:   6    -0.116344779411E+04   -0.83572E-04   -0.93703E-04  1653   0.338E-02    0.135E-01
RMM:   7    -0.116344764077E+04    0.15334E-03   -0.14219E-04  1601   0.170E-02    0.108E-01
RMM:   8    -0.116344762582E+04    0.14956E-04   -0.10461E-04  1667   0.123E-02    0.854E-02
RMM:   9    -0.116344761864E+04    0.71776E-05   -0.24758E-05  1681   0.694E-03    0.725E-02
RMM:  10    -0.116344760871E+04    0.99254E-05   -0.28641E-05  1605   0.634E-03    0.491E-02
RMM:  11    -0.116344760917E+04   -0.45901E-06   -0.27480E-06  1134   0.323E-03
   5 F= -.11634476E+04 E0= -.11634476E+04  d E =-.892738E-02  mag=     1.0008
       N       E                     dE             d eps       ncg     rms          rms(c)
DAV:   1    -0.116344798530E+04   -0.37658E-03   -0.21959E+00  1664   0.266E+00    0.434E-01
RMM:   2    -0.116345188125E+04   -0.38960E-02   -0.55771E-02  1538   0.375E-01    0.347E-01
RMM:   3    -0.116345208528E+04   -0.20402E-03   -0.10667E-02  1794   0.160E-01    0.292E-01
RMM:   4    -0.116345131846E+04    0.76682E-03   -0.19864E-03  1621   0.698E-02    0.214E-01
RMM:   5    -0.116345093573E+04    0.38273E-03   -0.27527E-03  1543   0.685E-02    0.112E-01
RMM:   6    -0.116345139592E+04   -0.46019E-03   -0.78788E-04  1804   0.443E-02    0.637E-02
RMM:   7    -0.116345144610E+04   -0.50182E-04   -0.13240E-04  1778   0.178E-02    0.459E-02
RMM:   8    -0.116345146723E+04   -0.21128E-04   -0.93634E-05  1554   0.125E-02    0.207E-02
RMM:   9    -0.116345147197E+04   -0.47471E-05   -0.49705E-05  1770   0.921E-03    0.126E-02
RMM:  10    -0.116345147214E+04   -0.16073E-06   -0.44974E-06  1316   0.362E-03
   6 F= -.11634515E+04 E0= -.11634514E+04  d E =-.386296E-02  mag=     1.0010
       N       E                     dE             d eps       ncg     rms          rms(c)
DAV:   1    -0.116345200607E+04   -0.53409E-03   -0.20086E-01  1728   0.806E-01    0.132E-01
RMM:   2    -0.116345234548E+04   -0.33941E-03   -0.51604E-03  1540   0.114E-01    0.106E-01
RMM:   3    -0.116345236823E+04   -0.22743E-04   -0.98007E-04  1785   0.489E-02    0.876E-02
RMM:   4    -0.116345230162E+04    0.66607E-04   -0.19182E-04  1620   0.218E-02    0.631E-02
RMM:   5    -0.116345227348E+04    0.28136E-04   -0.24047E-04  1541   0.207E-02    0.330E-02
RMM:   6    -0.116345232329E+04   -0.49803E-04   -0.73826E-05  1792   0.136E-02    0.182E-02
RMM:   7    -0.116345232885E+04   -0.55604E-05   -0.11928E-05  1514   0.566E-03    0.135E-02
RMM:   8    -0.116345233366E+04   -0.48173E-05   -0.83947E-06  1498   0.398E-03    0.616E-03
RMM:   9    -0.116345233555E+04   -0.18822E-05   -0.42203E-06  1302   0.307E-03    0.383E-03
RMM:  10    -0.116345233605E+04   -0.50616E-06   -0.66177E-07  1023   0.208E-03
   7 F= -.11634523E+04 E0= -.11634523E+04  d E =-.472688E-02  mag=     1.0009
       N       E                     dE             d eps       ncg     rms          rms(c)
DAV:   1    -0.116344786243E+04    0.44731E-02   -0.16219E+00  1600   0.237E+00    0.413E-01
RMM:   2    -0.116345255384E+04   -0.46914E-02   -0.60427E-02  1545   0.332E-01    0.293E-01
RMM:   3    -0.116345309146E+04   -0.53762E-03   -0.98903E-03  1760   0.137E-01    0.225E-01
RMM:   4    -0.116345316465E+04   -0.73187E-04   -0.14801E-03  1686   0.568E-02    0.167E-01
RMM:   5    -0.116345337006E+04   -0.20541E-03   -0.96860E-04  1565   0.423E-02    0.991E-02
RMM:   6    -0.116345403759E+04   -0.66753E-03   -0.49372E-04  1717   0.342E-02    0.428E-02
RMM:   7    -0.116345408320E+04   -0.45613E-04   -0.89208E-05  1844   0.155E-02    0.313E-02
RMM:   8    -0.116345409091E+04   -0.77031E-05   -0.71773E-05  1558   0.104E-02    0.130E-02
RMM:   9    -0.116345409734E+04   -0.64321E-05   -0.19234E-05  1679   0.609E-03    0.918E-03
RMM:  10    -0.116345410000E+04   -0.26644E-05   -0.21289E-06  1054   0.283E-03    0.721E-03
RMM:  11    -0.116345410291E+04   -0.29037E-05   -0.47280E-06  1390   0.310E-03    0.295E-03
RMM:  12    -0.116345410282E+04    0.81563E-07   -0.81274E-07  1025   0.161E-03
   8 F= -.11634541E+04 E0= -.11634540E+04  d E =-.176677E-02  mag=     1.0012
       N       E                     dE             d eps       ncg     rms          rms(c)
DAV:   1    -0.116345409207E+04    0.10832E-04   -0.20821E-01  1728   0.850E-01    0.148E-01
RMM:   2    -0.116345465565E+04   -0.56357E-03   -0.78203E-03  1548   0.120E-01    0.105E-01
RMM:   3    -0.116345472753E+04   -0.71883E-04   -0.12464E-03  1752   0.491E-02    0.798E-02
RMM:   4    -0.116345472289E+04    0.46375E-05   -0.20227E-04  1684   0.213E-02    0.584E-02
RMM:   5    -0.116345479593E+04   -0.73032E-04   -0.11396E-04  1574   0.148E-02    0.352E-02
RMM:   6    -0.116345488024E+04   -0.84318E-04   -0.65111E-05  1683   0.124E-02    0.144E-02
RMM:   7    -0.116345488877E+04   -0.85225E-05   -0.10956E-05  1508   0.576E-03    0.110E-02
RMM:   8    -0.116345489552E+04   -0.67501E-05   -0.11702E-05  1519   0.431E-03    0.440E-03
RMM:   9    -0.116345489699E+04   -0.14785E-05   -0.14738E-06  1040   0.237E-03    0.336E-03
RMM:  10    -0.116345489729E+04   -0.29896E-06   -0.51238E-07  1021   0.164E-03
   9 F= -.11634549E+04 E0= -.11634548E+04  d E =-.256124E-02  mag=     1.0011
       N       E                     dE             d eps       ncg     rms          rms(c)
DAV:   1    -0.116345384231E+04    0.10547E-02   -0.68783E-01  1600   0.155E+00    0.249E-01
RMM:   2    -0.116345565459E+04   -0.18123E-02   -0.22921E-02  1553   0.214E-01    0.179E-01
RMM:   3    -0.116345591372E+04   -0.25913E-03   -0.37097E-03  1752   0.882E-02    0.140E-01
RMM:   4    -0.116345592683E+04   -0.13109E-04   -0.56873E-04  1699   0.365E-02    0.103E-01
RMM:   5    -0.116345608451E+04   -0.15768E-03   -0.30205E-04  1588   0.248E-02    0.615E-02
RMM:   6    -0.116345629512E+04   -0.21061E-03   -0.16179E-04  1746   0.199E-02    0.252E-02
RMM:   7    -0.116345631424E+04   -0.19125E-04   -0.28744E-05  1755   0.905E-03    0.172E-02
RMM:   8    -0.116345632271E+04   -0.84669E-05   -0.22762E-05  1543   0.596E-03    0.785E-03
RMM:   9    -0.116345632501E+04   -0.22991E-05   -0.74267E-06  1450   0.378E-03    0.568E-03
RMM:  10    -0.116345632632E+04   -0.13142E-05   -0.97709E-07  1031   0.243E-03    0.425E-03
RMM:  11    -0.116345632729E+04   -0.96109E-06   -0.15269E-06  1032   0.180E-03
  10 F= -.11634563E+04 E0= -.11634563E+04  d E =-.142999E-02  mag=     1.0012
       N       E                     dE             d eps       ncg     rms          rms(c)
DAV:   1    -0.116345632161E+04    0.47142E-05   -0.25975E-02  1792   0.301E-01    0.483E-02
RMM:   2    -0.116345636850E+04   -0.46889E-04   -0.86831E-04  1553   0.418E-02    0.348E-02
RMM:   3    -0.116345637734E+04   -0.88391E-05   -0.13860E-04  1761   0.173E-02    0.270E-02
RMM:   4    -0.116345638808E+04   -0.10744E-04   -0.21618E-05  1599   0.728E-03    0.198E-02
RMM:   5    -0.116345639950E+04   -0.11418E-04   -0.12551E-05  1506   0.522E-03    0.115E-02
RMM:   6    -0.116345641058E+04   -0.11076E-04   -0.64142E-06  1453   0.442E-03    0.455E-03
RMM:   7    -0.116345641296E+04   -0.23862E-05   -0.11716E-06  1037   0.254E-03    0.316E-03
RMM:   8    -0.116345641426E+04   -0.12968E-05   -0.90292E-07  1013   0.153E-03    0.162E-03
RMM:   9    -0.116345641446E+04   -0.19965E-06   -0.29673E-07   982   0.107E-03
  11 F= -.11634564E+04 E0= -.11634563E+04  d E =-.151717E-02  mag=     1.0012
       N       E                     dE             d eps       ncg     rms          rms(c)
DAV:   1    -0.116345665260E+04   -0.23834E-03   -0.43935E-01  1600   0.119E+00    0.158E-01
RMM:   2    -0.116345730996E+04   -0.65736E-03   -0.88847E-03  1540   0.158E-01    0.131E-01
RMM:   3    -0.116345738198E+04   -0.72020E-04   -0.18004E-03  1760   0.688E-02    0.112E-01
RMM:   4    -0.116345728744E+04    0.94543E-04   -0.35378E-04  1630   0.306E-02    0.777E-02
RMM:   5    -0.116345727859E+04    0.88473E-05   -0.36648E-04  1567   0.262E-02    0.389E-02
RMM:   6    -0.116345733572E+04   -0.57133E-04   -0.93242E-05  1878   0.164E-02    0.224E-02
RMM:   7    -0.116345734233E+04   -0.66036E-05   -0.13854E-05  1605   0.588E-03    0.156E-02
RMM:   8    -0.116345735064E+04   -0.83118E-05   -0.18087E-05  1564   0.525E-03    0.670E-03
RMM:   9    -0.116345735109E+04   -0.45398E-06   -0.63249E-06  1427   0.357E-03
  12 F= -.11634574E+04 E0= -.11634573E+04  d E =-.936632E-03  mag=     1.0012
