       N       E                     dE             d eps       ncg     rms          rms(c)
DAV:   1     0.487500685787E+04    0.48750E+04   -0.17123E+05  1728   0.986E+02
DAV:   2    -0.313687245610E+01   -0.48781E+04   -0.44805E+04  2268   0.217E+02
DAV:   3    -0.118446450826E+04   -0.11813E+04   -0.11759E+04  1872   0.118E+02
DAV:   4    -0.123579940397E+04   -0.51335E+02   -0.50977E+02  1836   0.327E+01
DAV:   5    -0.123705666679E+04   -0.12573E+01   -0.12538E+01  2016   0.484E+00    0.624E+01
RMM:   6    -0.122151518473E+04    0.15541E+02   -0.86808E+00  1444   0.347E+00    0.508E+01
RMM:   7    -0.118031808384E+04    0.41197E+02   -0.93017E+01  1452   0.108E+01    0.296E+01
RMM:   8    -0.117407165663E+04    0.62464E+01   -0.67659E+00  1465   0.315E+00    0.249E+01
RMM:   9    -0.117044392044E+04    0.36277E+01   -0.36311E+01  1443   0.716E+00    0.127E+01
RMM:  10    -0.117063045375E+04   -0.18653E+00   -0.48032E+00  1445   0.275E+00    0.100E+01
RMM:  11    -0.116785656469E+04    0.27739E+01   -0.46267E+00  1450   0.179E+00    0.523E+00
RMM:  12    -0.116781113926E+04    0.45425E-01   -0.16345E+00  1466   0.117E+00    0.368E+00
RMM:  13    -0.116750490964E+04    0.30623E+00   -0.45928E-01  1440   0.747E-01    0.206E+00
RMM:  14    -0.116690044324E+04    0.60447E+00   -0.59919E-01  1448   0.669E-01    0.103E+00
RMM:  15    -0.116735878296E+04   -0.45834E+00   -0.17865E-01  1492   0.335E-01    0.765E-01
RMM:  16    -0.116754431038E+04   -0.18553E+00   -0.23432E-01  1449   0.278E-01    0.444E-01
RMM:  17    -0.116755741054E+04   -0.13100E-01   -0.40518E-02  1449   0.118E-01    0.297E-01
RMM:  18    -0.116755855108E+04   -0.11405E-02   -0.44538E-03  1299   0.458E-02    0.246E-01
RMM:  19    -0.116755731043E+04    0.12406E-02   -0.32740E-03  1378   0.504E-02    0.119E-01
RMM:  20    -0.116755695133E+04    0.35910E-03   -0.12778E-03  1104   0.262E-02    0.111E-01
RMM:  21    -0.116755711039E+04   -0.15906E-03   -0.26799E-04   982   0.185E-02    0.533E-02
RMM:  22    -0.116755712905E+04   -0.18662E-04   -0.12538E-04   929   0.127E-02
   1 F= -.11748036E+04 E0= -.11748036E+04  d E =-.117480E+04  mag=     1.0033
       N       E                     dE             d eps       ncg     rms          rms(c)
DAV:   1    -0.116755726838E+04   -0.15799E-03   -0.19851E-01  1476   0.759E-01    0.176E-01
RMM:   2    -0.116755761757E+04   -0.34919E-03   -0.62813E-03  1459   0.116E-01    0.165E-01
RMM:   3    -0.116755730156E+04    0.31600E-03   -0.41444E-04  1070   0.280E-02    0.135E-01
RMM:   4    -0.116755701506E+04    0.28651E-03   -0.25349E-03  1440   0.586E-02    0.534E-02
RMM:   5    -0.116755697467E+04    0.40386E-04   -0.50073E-05   904   0.117E-02
   2 F= -.11748034E+04 E0= -.11748034E+04  d E =0.214601E-03  mag=     1.0003
       N       E                     dE             d eps       ncg     rms          rms(c)
DAV:   1    -0.116755777613E+04   -0.76108E-03   -0.66426E-02  1584   0.439E-01    0.949E-02
RMM:   2    -0.116755782784E+04   -0.51707E-04   -0.17623E-03  1439   0.624E-02    0.860E-02
RMM:   3    -0.116755765658E+04    0.17126E-03   -0.16751E-04   917   0.180E-02    0.615E-02
RMM:   4    -0.116755755119E+04    0.10538E-03   -0.59373E-04  1332   0.290E-02    0.269E-02
RMM:   5    -0.116755755220E+04   -0.10092E-05   -0.20468E-05   860   0.743E-03
   3 F= -.11748040E+04 E0= -.11748040E+04  d E =-.397024E-03  mag=     1.0001
