       N       E                     dE             d eps       ncg     rms          rms(c)
DAV:   1     0.469074369053E+04    0.46907E+04   -0.17470E+05  1764   0.992E+02
DAV:   2    -0.209186548423E+02   -0.47117E+04   -0.43197E+04  2304   0.218E+02
DAV:   3    -0.118001315903E+04   -0.11591E+04   -0.11526E+04  1908   0.116E+02
DAV:   4    -0.123233866904E+04   -0.52326E+02   -0.51901E+02  1872   0.324E+01
DAV:   5    -0.123379439330E+04   -0.14557E+01   -0.14519E+01  2196   0.482E+00    0.622E+01
RMM:   6    -0.121939103330E+04    0.14403E+02   -0.80532E+00  1445   0.344E+00    0.507E+01
RMM:   7    -0.117588978765E+04    0.43501E+02   -0.80601E+01  1447   0.105E+01    0.282E+01
RMM:   8    -0.116696862748E+04    0.89212E+01   -0.22147E+01  1444   0.587E+00    0.175E+01
RMM:   9    -0.116665683883E+04    0.31179E+00   -0.21740E+01  1440   0.577E+00    0.938E+00
RMM:  10    -0.116604388708E+04    0.61295E+00   -0.10670E+00  1465   0.140E+00    0.491E+00
RMM:  11    -0.116567431520E+04    0.36957E+00   -0.10699E+00  1440   0.124E+00    0.194E+00
RMM:  12    -0.116562723233E+04    0.47083E-01   -0.18796E-01  1440   0.478E-01    0.792E-01
RMM:  13    -0.116562626167E+04    0.97066E-03   -0.40120E-02  1513   0.229E-01    0.521E-01
RMM:  14    -0.116562747403E+04   -0.12124E-02   -0.13038E-02  1479   0.129E-01    0.301E-01
RMM:  15    -0.116562873466E+04   -0.12606E-02   -0.47477E-03  1458   0.827E-02    0.151E-01
RMM:  16    -0.116562915079E+04   -0.41612E-03   -0.19018E-03  1474   0.504E-02    0.104E-01
RMM:  17    -0.116562920510E+04   -0.54319E-04   -0.85549E-04  1415   0.352E-02
   1 F= -.11727045E+04 E0= -.11727040E+04  d E =-.117270E+04  mag=    -0.9985
       N       E                     dE             d eps       ncg     rms          rms(c)
DAV:   1    -0.116562227844E+04    0.68723E-02   -0.28738E+00  1548   0.246E+00    0.953E-01
RMM:   2    -0.116562829019E+04   -0.60118E-02   -0.73638E-02  1514   0.340E-01    0.886E-01
RMM:   3    -0.116562740064E+04    0.88955E-03   -0.46931E-03  1587   0.725E-02    0.765E-01
RMM:   4    -0.116562833303E+04   -0.93239E-03   -0.11851E-02  1452   0.117E-01    0.229E-01
RMM:   5    -0.116562702201E+04    0.13110E-02   -0.14543E-03  1263   0.367E-02    0.113E-01
RMM:   6    -0.116562698539E+04    0.36619E-04   -0.49783E-04  1098   0.208E-02
   2 F= -.11727018E+04 E0= -.11727010E+04  d E =0.271482E-02  mag=    -0.9834
       N       E                     dE             d eps       ncg     rms          rms(c)
DAV:   1    -0.116563304552E+04   -0.60235E-02   -0.88125E-01  1476   0.135E+00    0.497E-01
RMM:   2    -0.116563441500E+04   -0.13695E-02   -0.19301E-02  1505   0.179E-01    0.473E-01
RMM:   3    -0.116563405398E+04    0.36102E-03   -0.11886E-03  1264   0.373E-02    0.416E-01
RMM:   4    -0.116563414493E+04   -0.90957E-04   -0.38007E-03  1425   0.667E-02    0.135E-01
RMM:   5    -0.116563384550E+04    0.29944E-03   -0.35630E-04   988   0.192E-02    0.637E-02
RMM:   6    -0.116563383749E+04    0.80096E-05   -0.13311E-04   925   0.122E-02
   3 F= -.11727089E+04 E0= -.11727083E+04  d E =-.440455E-02  mag=    -0.9861
       N       E                     dE             d eps       ncg     rms          rms(c)
DAV:   1    -0.116563393076E+04   -0.85257E-04   -0.44828E-01  1440   0.114E+00    0.250E-01
RMM:   2    -0.116563458076E+04   -0.65000E-03   -0.10824E-02  1440   0.166E-01    0.224E-01
RMM:   3    -0.116563407781E+04    0.50295E-03   -0.59466E-04  1185   0.342E-02    0.183E-01
RMM:   4    -0.116563374796E+04    0.32985E-03   -0.38551E-03  1442   0.711E-02    0.744E-02
RMM:   5    -0.116563365259E+04    0.95374E-04   -0.90086E-05   913   0.145E-02
   4 F= -.11727087E+04 E0= -.11727079E+04  d E =0.267141E-03  mag=    -0.9854
       N       E                     dE             d eps       ncg     rms          rms(c)
DAV:   1    -0.116563492702E+04   -0.11791E-02   -0.13751E-01  1512   0.632E-01    0.128E-01
RMM:   2    -0.116563503665E+04   -0.10963E-03   -0.29577E-03  1440   0.859E-02    0.116E-01
RMM:   3    -0.116563481867E+04    0.21798E-03   -0.20255E-04   944   0.202E-02    0.919E-02
RMM:   4    -0.116563466429E+04    0.15438E-03   -0.13207E-03  1434   0.425E-02    0.405E-02
RMM:   5    -0.116563464207E+04    0.22222E-04   -0.30971E-05   866   0.881E-03
   5 F= -.11727097E+04 E0= -.11727090E+04  d E =-.769893E-03  mag=    -0.9855
