       N       E                     dE             d eps       ncg     rms          rms(c)
DAV:   1     0.472212481221E+04    0.47221E+04   -0.17636E+05  1908   0.912E+02
DAV:   2    -0.923023466697E+02   -0.48144E+04   -0.43873E+04  2520   0.206E+02
DAV:   3    -0.118663525629E+04   -0.10943E+04   -0.10889E+04  2160   0.107E+02
DAV:   4    -0.122921994325E+04   -0.42585E+02   -0.42363E+02  2052   0.277E+01
DAV:   5    -0.123030070648E+04   -0.10808E+01   -0.10778E+01  2340   0.409E+00    0.671E+01
RMM:   6    -0.121944905367E+04    0.10852E+02   -0.40848E+01  1605   0.575E+00    0.677E+01
RMM:   7    -0.120928856302E+04    0.10160E+02   -0.26790E+00  1588   0.201E+00    0.485E+01
RMM:   8    -0.119315228552E+04    0.16136E+02   -0.92157E+00  1584   0.343E+00    0.386E+01
RMM:   9    -0.117798706090E+04    0.15165E+02   -0.42757E+01  1584   0.751E+00    0.393E+01
RMM:  10    -0.116465647302E+04    0.13331E+02   -0.12646E+01  1602   0.375E+00    0.205E+01
RMM:  11    -0.116831545485E+04   -0.36590E+01   -0.11489E+01  1595   0.370E+00    0.143E+01
RMM:  12    -0.116635144520E+04    0.19640E+01   -0.38267E+00  1587   0.228E+00    0.872E+00
RMM:  13    -0.116477460782E+04    0.15768E+01   -0.10129E+00  1603   0.891E-01    0.586E+00
RMM:  14    -0.116419608646E+04    0.57852E+00   -0.84565E-01  1586   0.984E-01    0.294E+00
RMM:  15    -0.116439243319E+04   -0.19635E+00   -0.16141E-01  1598   0.429E-01    0.325E+00
RMM:  16    -0.116416838125E+04    0.22405E+00   -0.11475E-01  1594   0.356E-01    0.241E+00
RMM:  17    -0.116413678025E+04    0.31601E-01   -0.85059E-03  1613   0.929E-02    0.220E+00
RMM:  18    -0.116408506708E+04    0.51713E-01   -0.95787E-03  1576   0.702E-02    0.186E+00
RMM:  19    -0.116397776042E+04    0.10731E+00   -0.58271E-02  1602   0.188E-01    0.850E-01
RMM:  20    -0.116397861524E+04   -0.85482E-03   -0.32636E-03  1466   0.445E-02    0.846E-01
RMM:  21    -0.116397822078E+04    0.39445E-03   -0.12514E-04  1087   0.141E-02    0.836E-01
RMM:  22    -0.116397826230E+04   -0.41517E-04   -0.23452E-05  1034   0.759E-03
   1 F= -.11710189E+04 E0= -.11710106E+04  d E =-.117102E+04  mag=    -0.8269
       N       E                     dE             d eps       ncg     rms          rms(c)
DAV:   1    -0.116395681134E+04    0.21409E-01   -0.55374E+00  1728   0.385E+00    0.113E+00
RMM:   2    -0.116397671407E+04   -0.19903E-01   -0.39067E-01  1597   0.633E-01    0.150E+00
RMM:   3    -0.116396619699E+04    0.10517E-01   -0.15976E-02  1728   0.126E-01    0.104E+00
RMM:   4    -0.116396540368E+04    0.79331E-03   -0.30379E-03  1634   0.542E-02    0.117E+00
RMM:   5    -0.116395810472E+04    0.72990E-02   -0.22287E-02  1584   0.158E-01    0.427E-01
RMM:   6    -0.116395705682E+04    0.10479E-02   -0.48320E-03  1608   0.687E-02    0.394E-01
RMM:   7    -0.116395746889E+04   -0.41207E-03   -0.47972E-04  1158   0.229E-02    0.308E-01
RMM:   8    -0.116395735620E+04    0.11269E-03   -0.11549E-03  1417   0.320E-02    0.954E-02
RMM:   9    -0.116395739353E+04   -0.37332E-04   -0.20562E-04  1051   0.151E-02
   2 F= -.11709984E+04 E0= -.11709896E+04  d E =0.205339E-01  mag=    -0.8640
       N       E                     dE             d eps       ncg     rms          rms(c)
DAV:   1    -0.116396078029E+04   -0.34241E-02   -0.16246E+00  1764   0.207E+00    0.532E-01
RMM:   2    -0.116397038690E+04   -0.96066E-02   -0.10432E-01  1602   0.331E-01    0.541E-01
RMM:   3    -0.116396849466E+04    0.18922E-02   -0.40266E-03  1478   0.613E-02    0.516E-01
RMM:   4    -0.116396809157E+04    0.40309E-03   -0.65473E-04  1201   0.268E-02    0.467E-01
RMM:   5    -0.116396699928E+04    0.10923E-02   -0.53243E-03  1584   0.841E-02    0.159E-01
RMM:   6    -0.116396713534E+04   -0.13606E-03   -0.50184E-04  1323   0.268E-02    0.119E-01
RMM:   7    -0.116396700365E+04    0.13169E-03   -0.48441E-04  1316   0.234E-02    0.574E-02
RMM:   8    -0.116396702144E+04   -0.17785E-04   -0.53131E-05  1013   0.913E-03
   3 F= -.11710079E+04 E0= -.11710013E+04  d E =0.110935E-01  mag=    -0.8678
       N       E                     dE             d eps       ncg     rms          rms(c)
DAV:   1    -0.116395763440E+04    0.93692E-02   -0.16654E+00  1800   0.204E+00    0.763E-01
RMM:   2    -0.116396280037E+04   -0.51660E-02   -0.56046E-02  1590   0.337E-01    0.662E-01
RMM:   3    -0.116395976448E+04    0.30359E-02   -0.35403E-03  1608   0.712E-02    0.349E-01
RMM:   4    -0.116395891583E+04    0.84864E-03   -0.78553E-04  1498   0.371E-02    0.299E-01
RMM:   5    -0.116395760053E+04    0.13153E-02   -0.48981E-03  1584   0.807E-02    0.164E-01
RMM:   6    -0.116395755665E+04    0.43882E-04   -0.56069E-04  1293   0.279E-02
   4 F= -.11709983E+04 E0= -.11709887E+04  d E =0.952390E-02  mag=    -0.9180
       N       E                     dE             d eps       ncg     rms          rms(c)
DAV:   1    -0.116396847177E+04   -0.10871E-01   -0.89224E-01  1800   0.150E+00    0.499E-01
RMM:   2    -0.116397087401E+04   -0.24022E-02   -0.29080E-02  1588   0.244E-01    0.438E-01
RMM:   3    -0.116396983192E+04    0.10421E-02   -0.17526E-03  1511   0.511E-02    0.273E-01
RMM:   4    -0.116396946012E+04    0.37179E-03   -0.32278E-04  1151   0.255E-02    0.228E-01
RMM:   5    -0.116396871867E+04    0.74146E-03   -0.24233E-03  1578   0.579E-02    0.126E-01
RMM:   6    -0.116396870889E+04    0.97800E-05   -0.24540E-04  1056   0.178E-02
   5 F= -.11710095E+04 E0= -.11710027E+04  d E =-.167082E-02  mag=    -0.8839
