       N       E                     dE             d eps       ncg     rms          rms(c)
DAV:   1     0.501353571689E+04    0.50135E+04   -0.17157E+05  1800   0.917E+02
DAV:   2    -0.255776121935E+02   -0.50391E+04   -0.46096E+04  2520   0.211E+02
DAV:   3    -0.118507071949E+04   -0.11595E+04   -0.11538E+04  2088   0.112E+02
DAV:   4    -0.123293475805E+04   -0.47864E+02   -0.47599E+02  2016   0.298E+01
DAV:   5    -0.123416071654E+04   -0.12260E+01   -0.12226E+01  2304   0.437E+00    0.649E+01
RMM:   6    -0.121724258511E+04    0.16918E+02   -0.22593E+01  1584   0.501E+00    0.523E+01
RMM:   7    -0.120054176277E+04    0.16701E+02   -0.10878E+01  1585   0.375E+00    0.413E+01
RMM:   8    -0.117465034217E+04    0.25891E+02   -0.42906E+01  1584   0.751E+00    0.322E+01
RMM:   9    -0.117167580929E+04    0.29745E+01   -0.18345E+00  1611   0.168E+00    0.242E+01
RMM:  10    -0.116714732042E+04    0.45285E+01   -0.19011E+01  1584   0.490E+00    0.138E+01
RMM:  11    -0.116923561299E+04   -0.20883E+01   -0.60562E+00  1584   0.278E+00    0.915E+00
RMM:  12    -0.116829725693E+04    0.93836E+00   -0.38441E-01  1596   0.755E-01    0.653E+00
RMM:  13    -0.116728335693E+04    0.10139E+01   -0.16270E+00  1584   0.125E+00    0.298E+00
RMM:  14    -0.116715925053E+04    0.12411E+00   -0.19585E-01  1594   0.395E-01    0.203E+00
RMM:  15    -0.116709268281E+04    0.66568E-01   -0.37448E-02  1602   0.150E-01    0.170E+00
RMM:  16    -0.116701507098E+04    0.77612E-01   -0.22641E-02  1592   0.121E-01    0.137E+00
RMM:  17    -0.116697030353E+04    0.44767E-01   -0.42413E-02  1588   0.158E-01    0.133E+00
RMM:  18    -0.116697175726E+04   -0.14537E-02   -0.85928E-03  1560   0.667E-02    0.133E+00
RMM:  19    -0.116696909655E+04    0.26607E-02   -0.12826E-03  1224   0.302E-02    0.151E+00
RMM:  20    -0.116697919550E+04   -0.10099E-01   -0.13728E-02  1584   0.979E-02    0.137E+00
RMM:  21    -0.116697200547E+04    0.71900E-02   -0.79573E-03  1584   0.758E-02    0.815E-01
RMM:  22    -0.116697252181E+04   -0.51634E-03   -0.99253E-03  1482   0.561E-02    0.297E-01
RMM:  23    -0.116697327526E+04   -0.75345E-03   -0.56395E-04  1181   0.271E-02    0.225E-01
RMM:  24    -0.116697403072E+04   -0.75546E-03   -0.72679E-04  1283   0.270E-02    0.176E-01
RMM:  25    -0.116697349207E+04    0.53865E-03   -0.39580E-04  1064   0.189E-02    0.773E-02
RMM:  26    -0.116697355930E+04   -0.67226E-04   -0.15989E-04  1032   0.105E-02
   1 F= -.11741312E+04 E0= -.11741310E+04  d E =-.117413E+04  mag=    -1.0055
       N       E                     dE             d eps       ncg     rms          rms(c)
DAV:   1    -0.116696899011E+04    0.45020E-02   -0.23321E+00  1728   0.229E+00    0.538E-01
RMM:   2    -0.116697294380E+04   -0.39537E-02   -0.52242E-02  1585   0.313E-01    0.468E-01
RMM:   3    -0.116697246403E+04    0.47977E-03   -0.34224E-03  1689   0.676E-02    0.418E-01
RMM:   4    -0.116697107702E+04    0.13870E-02   -0.37502E-03  1585   0.724E-02    0.219E-01
RMM:   5    -0.116697106902E+04    0.80008E-05   -0.17134E-03  1584   0.478E-02    0.107E-01
RMM:   6    -0.116697100732E+04    0.61695E-04   -0.19651E-04  1084   0.175E-02
   2 F= -.11741295E+04 E0= -.11741294E+04  d E =0.166909E-02  mag=    -0.9987
       N       E                     dE             d eps       ncg     rms          rms(c)
DAV:   1    -0.116697609580E+04   -0.50268E-02   -0.69743E-01  1872   0.124E+00    0.280E-01
RMM:   2    -0.116697705436E+04   -0.95856E-03   -0.13671E-02  1587   0.165E-01    0.251E-01
RMM:   3    -0.116697682918E+04    0.22518E-03   -0.82681E-04  1351   0.343E-02    0.220E-01
RMM:   4    -0.116697630974E+04    0.51944E-03   -0.15885E-03  1583   0.469E-02    0.105E-01
RMM:   5    -0.116697631553E+04   -0.57959E-05   -0.42469E-04  1351   0.246E-02
   3 F= -.11741344E+04 E0= -.11741342E+04  d E =-.316207E-02  mag=    -0.9975
       N       E                     dE             d eps       ncg     rms          rms(c)
DAV:   1    -0.116697781565E+04   -0.15059E-02   -0.10690E+00  1656   0.152E+00    0.411E-01
RMM:   2    -0.116697830120E+04   -0.48555E-03   -0.19005E-02  1584   0.201E-01    0.290E-01
RMM:   3    -0.116697772949E+04    0.57171E-03   -0.13271E-03  1550   0.448E-02    0.246E-01
RMM:   4    -0.116697671261E+04    0.10169E-02   -0.22941E-03  1584   0.530E-02    0.121E-01
RMM:   5    -0.116697664307E+04    0.69535E-04   -0.10001E-03  1584   0.353E-02    0.664E-02
RMM:   6    -0.116697662805E+04    0.15029E-04   -0.96305E-05  1015   0.122E-02
   4 F= -.11741349E+04 E0= -.11741347E+04  d E =-.507701E-03  mag=    -0.9977
       N       E                     dE             d eps       ncg     rms          rms(c)
DAV:   1    -0.116697803669E+04   -0.13936E-02   -0.22986E-01  1728   0.705E-01    0.183E-01
RMM:   2    -0.116697808154E+04   -0.44852E-04   -0.38697E-03  1584   0.906E-02    0.136E-01
RMM:   3    -0.116697793526E+04    0.14629E-03   -0.25195E-04  1099   0.208E-02    0.116E-01
RMM:   4    -0.116697767142E+04    0.26384E-03   -0.66763E-04  1538   0.293E-02    0.522E-02
RMM:   5    -0.116697766147E+04    0.99497E-05   -0.20284E-04  1076   0.172E-02
   5 F= -.11741358E+04 E0= -.11741357E+04  d E =-.145449E-02  mag=    -0.9977
       N       E                     dE             d eps       ncg     rms          rms(c)
DAV:   1    -0.116697827816E+04   -0.60675E-03   -0.44573E-01  1728   0.943E-01    0.144E-01
RMM:   2    -0.116697873330E+04   -0.45513E-03   -0.69664E-03  1584   0.128E-01    0.134E-01
RMM:   3    -0.116697860760E+04    0.12570E-03   -0.28956E-04  1169   0.246E-02    0.122E-01
RMM:   4    -0.116697826501E+04    0.34259E-03   -0.15159E-03  1576   0.432E-02    0.488E-02
RMM:   5    -0.116697826537E+04   -0.35594E-06   -0.48819E-05  1012   0.101E-02
   6 F= -.11741365E+04 E0= -.11741364E+04  d E =-.712044E-03  mag=    -0.9977
       N       E                     dE             d eps       ncg     rms          rms(c)
DAV:   1    -0.116697844849E+04   -0.18348E-03   -0.33375E-02  1728   0.258E-01    0.355E-02
RMM:   2    -0.116697847319E+04   -0.24704E-04   -0.42984E-04  1202   0.321E-02
   7 F= -.11741367E+04 E0= -.11741366E+04  d E =-.890329E-03  mag=    -0.9977
