       N       E                     dE             d eps       ncg     rms          rms(c)
DAV:   1     0.472125993996E+04    0.47213E+04   -0.17830E+05  1908   0.917E+02
DAV:   2    -0.875498708074E+02   -0.48088E+04   -0.43982E+04  2520   0.210E+02
DAV:   3    -0.119629855014E+04   -0.11087E+04   -0.11018E+04  2124   0.109E+02
DAV:   4    -0.124127978170E+04   -0.44981E+02   -0.44720E+02  2052   0.287E+01
DAV:   5    -0.124243417514E+04   -0.11544E+01   -0.11516E+01  2340   0.442E+00    0.101E+02
RMM:   6    -0.124411071668E+04   -0.16765E+01   -0.21637E+02  1989   0.197E+01    0.981E+01
RMM:   7    -0.122390092273E+04    0.20210E+02   -0.10340E+01  1594   0.555E+00    0.708E+01
RMM:   8    -0.119186047711E+04    0.32040E+02   -0.29140E+01  1587   0.819E+00    0.397E+01
RMM:   9    -0.118990416322E+04    0.19563E+01   -0.42395E+01  1607   0.761E+00    0.874E+01
RMM:  10    -0.116734238988E+04    0.22562E+02   -0.39444E+01  1632   0.970E+00    0.217E+01
RMM:  11    -0.116772350378E+04   -0.38111E+00   -0.76467E+00  1590   0.317E+00    0.155E+01
RMM:  12    -0.116710928343E+04    0.61422E+00   -0.41531E+00  1589   0.272E+00    0.114E+01
RMM:  13    -0.116547693650E+04    0.16323E+01   -0.85764E-01  1602   0.119E+00    0.936E+00
RMM:  14    -0.116492818601E+04    0.54875E+00   -0.18121E+00  1587   0.153E+00    0.676E+00
RMM:  15    -0.116461564918E+04    0.31254E+00   -0.16489E-01  1584   0.567E-01    0.610E+00
RMM:  16    -0.116463227284E+04   -0.16624E-01   -0.18331E-02  1663   0.159E-01    0.567E+00
RMM:  17    -0.116450836598E+04    0.12391E+00   -0.59908E-02  1607   0.274E-01    0.484E+00
RMM:  18    -0.116441634431E+04    0.92022E-01   -0.27165E-02  1588   0.234E-01    0.412E+00
RMM:  19    -0.116438199041E+04    0.34354E-01   -0.73755E-03  1668   0.924E-02    0.379E+00
RMM:  20    -0.116428535985E+04    0.96631E-01   -0.24299E-02  1630   0.173E-01    0.306E+00
RMM:  21    -0.116422820599E+04    0.57154E-01   -0.19827E-02  1668   0.147E-01    0.263E+00
RMM:  22    -0.116431457145E+04   -0.86365E-01   -0.20824E-02  1646   0.150E-01    0.348E+00
RMM:  23    -0.116427799647E+04    0.36575E-01   -0.26943E-03  1517   0.620E-02    0.314E+00
RMM:  24    -0.116426804361E+04    0.99529E-02   -0.58344E-04  1224   0.269E-02    0.306E+00
RMM:  25    -0.116413626774E+04    0.13178E+00   -0.12075E-01  1677   0.335E-01    0.117E+00
RMM:  26    -0.116412620865E+04    0.10059E-01   -0.17480E-02  1669   0.149E-01    0.852E-01
RMM:  27    -0.116412183772E+04    0.43709E-02   -0.54909E-03  1726   0.741E-02    0.617E-01
RMM:  28    -0.116411852568E+04    0.33120E-02   -0.33652E-03  1566   0.632E-02    0.392E-01
RMM:  29    -0.116411868466E+04   -0.15897E-03   -0.25803E-04  1124   0.222E-02    0.432E-01
RMM:  30    -0.116411833769E+04    0.34696E-03   -0.11043E-03  1495   0.420E-02    0.280E-01
RMM:  31    -0.116411757863E+04    0.75906E-03   -0.12914E-03  1331   0.377E-02    0.144E-01
RMM:  32    -0.116411764837E+04   -0.69741E-04   -0.21430E-04  1104   0.193E-02
   1 F= -.11711447E+04 E0= -.11711447E+04  d E =-.117114E+04  mag=    -0.9990
       N       E                     dE             d eps       ncg     rms          rms(c)
DAV:   1    -0.116411588464E+04    0.16940E-02   -0.42303E-01  1584   0.139E+00    0.208E-01
RMM:   2    -0.116411814603E+04   -0.22614E-02   -0.26607E-02  1782   0.241E-01    0.175E-01
RMM:   3    -0.116411770428E+04    0.44176E-03   -0.14116E-03  1580   0.639E-02    0.174E-01
RMM:   4    -0.116411747012E+04    0.23415E-03   -0.24557E-04  1111   0.219E-02    0.150E-01
RMM:   5    -0.116411706179E+04    0.40834E-03   -0.13867E-03  1582   0.435E-02    0.588E-02
RMM:   6    -0.116411705892E+04    0.28634E-05   -0.19461E-04  1082   0.233E-02
   2 F= -.11711444E+04 E0= -.11711443E+04  d E =0.312676E-03  mag=    -0.9994
       N       E                     dE             d eps       ncg     rms          rms(c)
DAV:   1    -0.116411805589E+04   -0.99410E-03   -0.13001E-01  1584   0.768E-01    0.107E-01
RMM:   2    -0.116411867688E+04   -0.62099E-03   -0.76138E-03  1732   0.129E-01    0.948E-02
RMM:   3    -0.116411848815E+04    0.18873E-03   -0.29668E-04  1119   0.316E-02    0.980E-02
RMM:   4    -0.116411845178E+04    0.36370E-04   -0.61933E-05   991   0.145E-02
   3 F= -.11711456E+04 E0= -.11711456E+04  d E =-.926912E-03  mag=    -0.9994
