       N       E                     dE             d eps       ncg     rms          rms(c)
DAV:   1     0.473175675388E+04    0.47318E+04   -0.17264E+05  1872   0.909E+02
DAV:   2    -0.952789014719E+02   -0.48270E+04   -0.44011E+04  2520   0.208E+02
DAV:   3    -0.119481640214E+04   -0.10995E+04   -0.10936E+04  2052   0.109E+02
DAV:   4    -0.124061978872E+04   -0.45803E+02   -0.45541E+02  2052   0.304E+01
DAV:   5    -0.124189907231E+04   -0.12793E+01   -0.12765E+01  2412   0.467E+00    0.710E+01
RMM:   6    -0.122109577577E+04    0.20803E+02   -0.23953E+01  1599   0.528E+00    0.562E+01
RMM:   7    -0.120306429061E+04    0.18031E+02   -0.13124E+01  1586   0.431E+00    0.411E+01
RMM:   8    -0.118054345523E+04    0.22521E+02   -0.26178E+01  1584   0.606E+00    0.283E+01
RMM:   9    -0.117081860675E+04    0.97248E+01   -0.21266E+01  1584   0.555E+00    0.191E+01
RMM:  10    -0.117178549223E+04   -0.96689E+00   -0.12316E+01  1584   0.426E+00    0.907E+00
RMM:  11    -0.117203289076E+04   -0.24740E+00   -0.97776E-01  1628   0.173E+00    0.615E+00
RMM:  12    -0.117131522747E+04    0.71766E+00   -0.17180E+00  1584   0.145E+00    0.295E+00
RMM:  13    -0.117124847324E+04    0.66754E-01   -0.21993E-01  1584   0.654E-01    0.206E+00
RMM:  14    -0.117125237214E+04   -0.38989E-02   -0.40574E-02  1710   0.234E-01    0.998E-01
RMM:  15    -0.117125004818E+04    0.23240E-02   -0.89763E-03  1617   0.115E-01    0.392E-01
RMM:  16    -0.117124995590E+04    0.92278E-04   -0.27630E-03  1633   0.689E-02    0.328E-01
RMM:  17    -0.117125020344E+04   -0.24753E-03   -0.97188E-04  1495   0.392E-02    0.226E-01
RMM:  18    -0.117125030009E+04   -0.96652E-04   -0.33075E-04  1177   0.287E-02
   1 F= -.11785520E+04 E0= -.11785520E+04  d E =-.117855E+04  mag=     0.9987
       N       E                     dE             d eps       ncg     rms          rms(c)
DAV:   1    -0.117124983369E+04    0.36975E-03   -0.37431E-01  1728   0.985E-01    0.176E-01
RMM:   2    -0.117125056224E+04   -0.72856E-03   -0.10984E-02  1595   0.151E-01    0.173E-01
RMM:   3    -0.117125045631E+04    0.10593E-03   -0.72152E-04  1465   0.463E-02    0.204E-01
RMM:   4    -0.117125045735E+04   -0.10399E-05   -0.10007E-04  1056   0.156E-02
   2 F= -.11785525E+04 E0= -.11785525E+04  d E =-.458108E-03  mag=     0.9995
       N       E                     dE             d eps       ncg     rms          rms(c)
DAV:   1    -0.117125053139E+04   -0.75082E-04   -0.44445E-02  1656   0.336E-01    0.765E-02
RMM:   2    -0.117125067719E+04   -0.14580E-03   -0.13477E-03  1584   0.540E-02    0.548E-02
RMM:   3    -0.117125067473E+04    0.24649E-05   -0.83318E-05  1005   0.166E-02
   3 F= -.11785526E+04 E0= -.11785526E+04  d E =-.574819E-03  mag=     0.9999
