       N       E                     dE             d eps       ncg     rms          rms(c)
DAV:   1     0.511733686137E+04    0.51173E+04   -0.17276E+05  1800   0.917E+02
DAV:   2    -0.467161948159E+01   -0.51220E+04   -0.46767E+04  2520   0.213E+02
DAV:   3    -0.118030404278E+04   -0.11756E+04   -0.11692E+04  2052   0.116E+02
DAV:   4    -0.124089632439E+04   -0.60592E+02   -0.60290E+02  2088   0.357E+01
DAV:   5    -0.124330127457E+04   -0.24050E+01   -0.23986E+01  2304   0.649E+00    0.618E+01
RMM:   6    -0.122997412127E+04    0.13327E+02   -0.73986E+00  1696   0.335E+00    0.504E+01
RMM:   7    -0.118811319359E+04    0.41861E+02   -0.68968E+01  1886   0.107E+01    0.291E+01
RMM:   8    -0.117732085994E+04    0.10792E+02   -0.32710E+01  1820   0.102E+01    0.155E+01
RMM:   9    -0.117806411413E+04   -0.74325E+00   -0.17162E+01  1761   0.781E+00    0.921E+00
RMM:  10    -0.117803947104E+04    0.24643E-01   -0.29124E+00  1903   0.450E+00    0.648E+00
RMM:  11    -0.117733735083E+04    0.70212E+00   -0.24093E+00  1748   0.192E+00    0.279E+00
RMM:  12    -0.117732327770E+04    0.14073E-01   -0.30008E-01  1759   0.198E+00    0.143E+00
RMM:  13    -0.117729017479E+04    0.33103E-01   -0.14492E-01  1941   0.488E-01    0.835E-01
RMM:  14    -0.117728304822E+04    0.71266E-02   -0.37386E-02  1757   0.321E-01    0.517E-01
RMM:  15    -0.117728333286E+04   -0.28463E-03   -0.88571E-03  1803   0.251E-01    0.414E-01
RMM:  16    -0.117728359881E+04   -0.26595E-03   -0.34618E-03  1770   0.859E-02    0.312E-01
RMM:  17    -0.117728329714E+04    0.30167E-03   -0.18821E-03  1719   0.891E-02    0.186E-01
RMM:  18    -0.117728347407E+04   -0.17693E-03   -0.55515E-04  1395   0.649E-02    0.855E-02
RMM:  19    -0.117728345483E+04    0.19236E-04   -0.26068E-04  1118   0.416E-02
   1 F= -.11843290E+04 E0= -.11843233E+04  d E =-.118433E+04  mag=    -0.8180
       N       E                     dE             d eps       ncg     rms          rms(c)
DAV:   1    -0.117728204849E+04    0.14256E-02   -0.33111E-01  1728   0.965E-01    0.165E-01
RMM:   2    -0.117728288744E+04   -0.83895E-03   -0.11087E-02  1901   0.152E-01    0.148E-01
RMM:   3    -0.117728278267E+04    0.10477E-03   -0.11433E-03  1412   0.958E-02    0.139E-01
RMM:   4    -0.117728266902E+04    0.11365E-03   -0.28625E-04  1133   0.418E-02    0.119E-01
RMM:   5    -0.117728256854E+04    0.10048E-03   -0.41427E-04  1324   0.378E-02    0.727E-02
RMM:   6    -0.117728259133E+04   -0.22791E-04   -0.28440E-04  1144   0.513E-02
   2 F= -.11843280E+04 E0= -.11843222E+04  d E =0.973524E-03  mag=    -0.8174
       N       E                     dE             d eps       ncg     rms          rms(c)
DAV:   1    -0.117728399546E+04   -0.14269E-02   -0.12846E-01  1764   0.593E-01    0.102E-01
RMM:   2    -0.117728417613E+04   -0.18068E-03   -0.32180E-03  1655   0.884E-02    0.851E-02
RMM:   3    -0.117728410103E+04    0.75108E-04   -0.46618E-04  1289   0.906E-02
   3 F= -.11843296E+04 E0= -.11843238E+04  d E =-.602206E-03  mag=    -0.8184
