       N       E                     dE             d eps       ncg     rms          rms(c)
DAV:   1     0.496334201860E+04    0.49633E+04   -0.17086E+05  1728   0.988E+02
DAV:   2     0.479058442947E+02   -0.49154E+04   -0.45024E+04  2232   0.220E+02
DAV:   3    -0.116056408863E+04   -0.12085E+04   -0.12011E+04  1836   0.123E+02
DAV:   4    -0.122716303851E+04   -0.66599E+02   -0.66137E+02  2016   0.391E+01
DAV:   5    -0.122953614746E+04   -0.23731E+01   -0.23679E+01  2088   0.665E+00    0.603E+01
RMM:   6    -0.121562141423E+04    0.13915E+02   -0.74875E+00  1570   0.364E+00    0.490E+01
RMM:   7    -0.117386542596E+04    0.41756E+02   -0.64194E+01  1703   0.113E+01    0.285E+01
RMM:   8    -0.116310817999E+04    0.10757E+02   -0.25871E+01  1644   0.102E+01    0.182E+01
RMM:   9    -0.116273936951E+04    0.36881E+00   -0.24002E+01  1635   0.878E+00    0.934E+00
RMM:  10    -0.116331715863E+04   -0.57779E+00   -0.40795E+00  1710   0.641E+00    0.812E+00
RMM:  11    -0.116242493621E+04    0.89222E+00   -0.99576E-01  1653   0.159E+00    0.494E+00
RMM:  12    -0.116223017008E+04    0.19477E+00   -0.97699E-01  1618   0.186E+00    0.105E+00
RMM:  13    -0.116225057675E+04   -0.20407E-01   -0.11771E-01  1641   0.101E+00    0.639E-01
RMM:  14    -0.116225029439E+04    0.28236E-03   -0.21993E-02  1797   0.258E-01    0.450E-01
RMM:  15    -0.116225036720E+04   -0.72809E-04   -0.49923E-03  1607   0.124E-01    0.337E-01
RMM:  16    -0.116225070631E+04   -0.33911E-03   -0.40516E-03  1643   0.118E-01    0.216E-01
RMM:  17    -0.116225062439E+04    0.81919E-04   -0.83969E-04  1382   0.791E-02
   1 F= -.11692372E+04 E0= -.11692372E+04  d E =-.116924E+04  mag=    -1.0028
       N       E                     dE             d eps       ncg     rms          rms(c)
DAV:   1    -0.116225032554E+04    0.38076E-03   -0.14474E-01  1620   0.735E-01    0.121E-01
RMM:   2    -0.116225066444E+04   -0.33889E-03   -0.46931E-03  1543   0.107E-01    0.108E-01
RMM:   3    -0.116225061957E+04    0.44869E-04   -0.54369E-04  1170   0.103E-01
   2 F= -.11692372E+04 E0= -.11692371E+04  d E =0.395614E-04  mag=    -0.9988
       N       E                     dE             d eps       ncg     rms          rms(c)
DAV:   1    -0.116225087505E+04   -0.21062E-03   -0.42275E-02  1656   0.393E-01    0.539E-02
RMM:   2    -0.116225099779E+04   -0.12274E-03   -0.12886E-03  1447   0.606E-02    0.483E-02
RMM:   3    -0.116225099197E+04    0.58210E-05   -0.14660E-04   900   0.591E-02
   3 F= -.11692376E+04 E0= -.11692375E+04  d E =-.350846E-03  mag=    -0.9999
