       N       E                     dE             d eps       ncg     rms          rms(c)
DAV:   1     0.462538118913E+04    0.46254E+04   -0.18155E+05  1920   0.952E+02
DAV:   2    -0.824286741456E+02   -0.47078E+04   -0.43011E+04  2400   0.215E+02
DAV:   3    -0.120020062581E+04   -0.11178E+04   -0.11117E+04  1984   0.112E+02
DAV:   4    -0.124753426314E+04   -0.47334E+02   -0.47034E+02  1952   0.311E+01
DAV:   5    -0.124879131196E+04   -0.12570E+01   -0.12542E+01  2336   0.484E+00    0.852E+01
RMM:   6    -0.123620666696E+04    0.12585E+02   -0.11046E+02  1643   0.167E+01    0.959E+01
RMM:   7    -0.122105340742E+04    0.15153E+02   -0.15092E+01  1537   0.693E+00    0.643E+01
RMM:   8    -0.120278303791E+04    0.18270E+02   -0.13670E+01  1560   0.539E+00    0.414E+01
RMM:   9    -0.118976317562E+04    0.13020E+02   -0.14262E+01  1558   0.501E+00    0.326E+01
RMM:  10    -0.117447915116E+04    0.15284E+02   -0.24273E+01  1648   0.646E+00    0.213E+01
RMM:  11    -0.117193486758E+04    0.25443E+01   -0.12679E+01  1539   0.486E+00    0.127E+01
RMM:  12    -0.117264979238E+04   -0.71492E+00   -0.53798E+00  1562   0.356E+00    0.875E+00
RMM:  13    -0.117237454444E+04    0.27525E+00   -0.83243E-01  1602   0.165E+00    0.708E+00
RMM:  14    -0.117204273337E+04    0.33181E+00   -0.38690E-01  1538   0.107E+00    0.340E+00
RMM:  15    -0.117191230447E+04    0.13043E+00   -0.42197E-01  1536   0.835E-01    0.173E+00
RMM:  16    -0.117187735632E+04    0.34948E-01   -0.90162E-02  1537   0.495E-01    0.891E-01
RMM:  17    -0.117187753255E+04   -0.17622E-03   -0.35730E-02  1556   0.293E-01    0.527E-01
RMM:  18    -0.117187894787E+04   -0.14153E-02   -0.91329E-03  1669   0.175E-01    0.398E-01
RMM:  19    -0.117187927727E+04   -0.32940E-03   -0.26709E-03  1576   0.825E-02    0.347E-01
RMM:  20    -0.117187951963E+04   -0.24236E-03   -0.13013E-03  1598   0.610E-02    0.185E-01
RMM:  21    -0.117187964106E+04   -0.12143E-03   -0.45948E-04  1645   0.307E-02    0.123E-01
RMM:  22    -0.117187966532E+04   -0.24264E-04   -0.11113E-04  1553   0.166E-02    0.962E-02
RMM:  23    -0.117187967780E+04   -0.12479E-04   -0.44386E-05  1622   0.107E-02    0.673E-02
RMM:  24    -0.117187968167E+04   -0.38675E-05   -0.20604E-05  1596   0.665E-03    0.398E-02
RMM:  25    -0.117187967679E+04    0.48763E-05   -0.94721E-06  1479   0.477E-03    0.266E-02
RMM:  26    -0.117187967726E+04   -0.47235E-06   -0.37480E-06  1169   0.271E-03
   1 F= -.11789929E+04 E0= -.11789929E+04  d E =-.117899E+04  mag=     0.0003
       N       E                     dE             d eps       ncg     rms          rms(c)
DAV:   1    -0.117187786160E+04    0.18152E-02   -0.30835E-01  1632   0.120E+00    0.146E-01
RMM:   2    -0.117187900487E+04   -0.11433E-02   -0.13488E-02  1597   0.198E-01    0.121E-01
RMM:   3    -0.117187909802E+04   -0.93157E-04   -0.23468E-03  1724   0.761E-02    0.107E-01
RMM:   4    -0.117187898590E+04    0.11213E-03   -0.48563E-04  1698   0.328E-02    0.789E-02
RMM:   5    -0.117187896042E+04    0.25479E-04   -0.58770E-04  1557   0.309E-02    0.365E-02
RMM:   6    -0.117187895863E+04    0.17853E-05   -0.85828E-05  1664   0.160E-02    0.259E-02
RMM:   7    -0.117187895469E+04    0.39463E-05   -0.42184E-05  1537   0.859E-03    0.133E-02
RMM:   8    -0.117187895474E+04   -0.57742E-07   -0.67595E-06  1505   0.473E-03
   2 F= -.11789927E+04 E0= -.11789927E+04  d E =0.176737E-03  mag=    -0.0000
       N       E                     dE             d eps       ncg     rms          rms(c)
DAV:   1    -0.117187978027E+04   -0.82559E-03   -0.88275E-02  1632   0.641E-01    0.788E-02
RMM:   2    -0.117188004889E+04   -0.26862E-03   -0.33885E-03  1584   0.103E-01    0.657E-02
RMM:   3    -0.117188005742E+04   -0.85338E-05   -0.53505E-04  1659   0.382E-02    0.567E-02
RMM:   4    -0.117188002102E+04    0.36400E-04   -0.12951E-04  1662   0.172E-02    0.402E-02
RMM:   5    -0.117188001373E+04    0.72953E-05   -0.16258E-04  1558   0.164E-02    0.185E-02
RMM:   6    -0.117188001221E+04    0.15180E-05   -0.22471E-05  1609   0.846E-03    0.129E-02
RMM:   7    -0.117188001145E+04    0.76530E-06   -0.10682E-05  1503   0.445E-03    0.707E-03
RMM:   8    -0.117188001115E+04    0.29339E-06   -0.19674E-06  1024   0.248E-03
   3 F= -.11789935E+04 E0= -.11789935E+04  d E =-.587368E-03  mag=     0.0000
       N       E                     dE             d eps       ncg     rms          rms(c)
DAV:   1    -0.117187993576E+04    0.75685E-04   -0.17202E-01  1888   0.822E-01    0.105E-01
RMM:   2    -0.117188027610E+04   -0.34034E-03   -0.48473E-03  1594   0.124E-01    0.913E-02
RMM:   3    -0.117188028658E+04   -0.10486E-04   -0.70710E-04  1646   0.463E-02    0.795E-02
RMM:   4    -0.117188023824E+04    0.48341E-04   -0.17371E-04  1620   0.211E-02    0.589E-02
RMM:   5    -0.117188023748E+04    0.75985E-06   -0.26056E-04  1542   0.211E-02    0.230E-02
RMM:   6    -0.117188024318E+04   -0.56949E-05   -0.47038E-05  1720   0.110E-02    0.183E-02
RMM:   7    -0.117188024058E+04    0.26014E-05   -0.10549E-05  1527   0.478E-03    0.132E-02
RMM:   8    -0.117188024263E+04   -0.20522E-05   -0.56869E-06  1458   0.332E-03    0.738E-03
RMM:   9    -0.117188024256E+04    0.72487E-07   -0.49393E-06  1386   0.306E-03
   4 F= -.11789941E+04 E0= -.11789941E+04  d E =-.606328E-03  mag=    -0.0000
