       N       E                     dE             d eps       ncg     rms          rms(c)
DAV:   1     0.490239906163E+04    0.49024E+04   -0.17522E+05  1872   0.918E+02
DAV:   2    -0.649184814783E+02   -0.49673E+04   -0.45383E+04  2520   0.208E+02
DAV:   3    -0.120137673724E+04   -0.11365E+04   -0.11318E+04  2052   0.110E+02
DAV:   4    -0.124802197359E+04   -0.46645E+02   -0.46426E+02  1980   0.298E+01
DAV:   5    -0.124929539838E+04   -0.12734E+01   -0.12713E+01  2376   0.470E+00    0.696E+01
RMM:   6    -0.122973746143E+04    0.19558E+02   -0.20510E+01  1749   0.429E+00    0.532E+01
RMM:   7    -0.120385919310E+04    0.25878E+02   -0.27342E+01  1614   0.586E+00    0.366E+01
RMM:   8    -0.118181239174E+04    0.22047E+02   -0.36114E+01  1588   0.678E+00    0.238E+01
RMM:   9    -0.117847290854E+04    0.33395E+01   -0.31632E+01  1594   0.633E+00    0.112E+01
RMM:  10    -0.117928261645E+04   -0.80971E+00   -0.26818E+00  1684   0.206E+00    0.819E+00
RMM:  11    -0.117854003066E+04    0.74259E+00   -0.12851E+00  1622   0.116E+00    0.405E+00
RMM:  12    -0.117822294974E+04    0.31708E+00   -0.55795E-01  1636   0.801E-01    0.181E+00
RMM:  13    -0.117818657433E+04    0.36375E-01   -0.29559E-01  1615   0.602E-01    0.471E-01
RMM:  14    -0.117818560256E+04    0.97178E-03   -0.13563E-02  1719   0.179E-01    0.309E-01
RMM:  15    -0.117818474141E+04    0.86115E-03   -0.16555E-03  1711   0.501E-02    0.254E-01
RMM:  16    -0.117818499942E+04   -0.25801E-03   -0.12042E-03  1584   0.385E-02    0.150E-01
RMM:  17    -0.117818509567E+04   -0.96250E-04   -0.74043E-04  1205   0.299E-02
   1 F= -.11855254E+04 E0= -.11855239E+04  d E =-.118553E+04  mag=    -0.9675
       N       E                     dE             d eps       ncg     rms          rms(c)
DAV:   1    -0.117818359944E+04    0.14000E-02   -0.32455E-01  1728   0.964E-01    0.161E-01
RMM:   2    -0.117818514725E+04   -0.15478E-02   -0.17932E-02  1818   0.180E-01    0.149E-01
RMM:   3    -0.117818504644E+04    0.10082E-03   -0.10831E-03  1528   0.497E-02    0.177E-01
RMM:   4    -0.117818505346E+04   -0.70238E-05   -0.14955E-04  1099   0.156E-02
   2 F= -.11855256E+04 E0= -.11855241E+04  d E =-.226589E-03  mag=    -0.9670
       N       E                     dE             d eps       ncg     rms          rms(c)
DAV:   1    -0.117818535370E+04   -0.30727E-03   -0.59172E-02  1584   0.411E-01    0.154E-01
RMM:   2    -0.117818563616E+04   -0.28246E-03   -0.29914E-03  1805   0.756E-02    0.107E-01
RMM:   3    -0.117818561534E+04    0.20819E-04   -0.23650E-04  1115   0.234E-02
   3 F= -.11855260E+04 E0= -.11855246E+04  d E =-.672053E-03  mag=    -0.9666
