       N       E                     dE             d eps       ncg     rms          rms(c)
DAV:   1     0.460034870851E+04    0.46003E+04   -0.17387E+05  1800   0.991E+02
DAV:   2    -0.438592155461E+02   -0.46442E+04   -0.42644E+04  2268   0.215E+02
DAV:   3    -0.117606690274E+04   -0.11322E+04   -0.11269E+04  1872   0.115E+02
DAV:   4    -0.122464641921E+04   -0.48580E+02   -0.48216E+02  1872   0.316E+01
DAV:   5    -0.122579704823E+04   -0.11506E+01   -0.11467E+01  2088   0.457E+00    0.650E+01
RMM:   6    -0.120904650280E+04    0.16751E+02   -0.25106E+01  1440   0.511E+00    0.511E+01
RMM:   7    -0.119119081175E+04    0.17856E+02   -0.12141E+01  1440   0.437E+00    0.398E+01
RMM:   8    -0.116312162096E+04    0.28069E+02   -0.47176E+01  1440   0.852E+00    0.236E+01
RMM:   9    -0.115990354937E+04    0.32181E+01   -0.35023E+01  1440   0.730E+00    0.103E+01
RMM:  10    -0.116051473913E+04   -0.61119E+00   -0.19524E+00  1467   0.191E+00    0.805E+00
RMM:  11    -0.115970236688E+04    0.81237E+00   -0.19926E+00  1440   0.156E+00    0.362E+00
RMM:  12    -0.115947989734E+04    0.22247E+00   -0.24004E-01  1440   0.571E-01    0.170E+00
RMM:  13    -0.115942903161E+04    0.50866E-01   -0.17658E-01  1440   0.512E-01    0.627E-01
RMM:  14    -0.115942814476E+04    0.88685E-03   -0.23372E-02  1462   0.201E-01    0.274E-01
RMM:  15    -0.115942743123E+04    0.71354E-03   -0.46197E-03  1462   0.854E-02    0.211E-01
RMM:  16    -0.115942769242E+04   -0.26120E-03   -0.15119E-03  1440   0.515E-02    0.131E-01
RMM:  17    -0.115942807667E+04   -0.38425E-03   -0.99209E-04  1368   0.423E-02    0.673E-02
RMM:  18    -0.115942819112E+04   -0.11444E-03   -0.34840E-04  1087   0.249E-02    0.517E-02
RMM:  19    -0.115942819393E+04   -0.28119E-05   -0.75217E-05   886   0.134E-02
   1 F= -.11666403E+04 E0= -.11666312E+04  d E =-.116664E+04  mag=    -0.6571
       N       E                     dE             d eps       ncg     rms          rms(c)
DAV:   1    -0.115942418898E+04    0.40021E-02   -0.19673E+00  1692   0.227E+00    0.664E-01
RMM:   2    -0.115942733679E+04   -0.31478E-02   -0.41699E-02  1443   0.298E-01    0.603E-01
RMM:   3    -0.115942643028E+04    0.90651E-03   -0.28905E-03  1516   0.672E-02    0.507E-01
RMM:   4    -0.115942515541E+04    0.12749E-02   -0.98370E-03  1440   0.121E-01    0.106E-01
RMM:   5    -0.115942507636E+04    0.79046E-04   -0.18160E-04   946   0.224E-02
   2 F= -.11666377E+04 E0= -.11666292E+04  d E =0.259924E-02  mag=    -0.6870
       N       E                     dE             d eps       ncg     rms          rms(c)
DAV:   1    -0.115943085586E+04   -0.57004E-02   -0.62481E-01  1584   0.127E+00    0.366E-01
RMM:   2    -0.115943154548E+04   -0.68962E-03   -0.10225E-02  1440   0.155E-01    0.327E-01
RMM:   3    -0.115943117190E+04    0.37359E-03   -0.70142E-04  1189   0.350E-02    0.258E-01
RMM:   4    -0.115943081546E+04    0.35644E-03   -0.26039E-03  1440   0.634E-02    0.462E-02
RMM:   5    -0.115943079430E+04    0.21157E-04   -0.41011E-05   871   0.111E-02
   3 F= -.11666432E+04 E0= -.11666347E+04  d E =-.282722E-02  mag=    -0.6900
       N       E                     dE             d eps       ncg     rms          rms(c)
DAV:   1    -0.115943293068E+04   -0.21152E-02   -0.68078E-01  1512   0.141E+00    0.351E-01
RMM:   2    -0.115943330705E+04   -0.37637E-03   -0.12910E-02  1440   0.186E-01    0.302E-01
RMM:   3    -0.115943213196E+04    0.11751E-02   -0.11986E-03  1462   0.482E-02    0.227E-01
RMM:   4    -0.115943120675E+04    0.92521E-03   -0.56190E-03  1440   0.879E-02    0.706E-02
RMM:   5    -0.115943112478E+04    0.81963E-04   -0.99903E-05   914   0.163E-02
   4 F= -.11666430E+04 E0= -.11666346E+04  d E =0.147785E-03  mag=    -0.6895
       N       E                     dE             d eps       ncg     rms          rms(c)
DAV:   1    -0.115943266500E+04   -0.14582E-02   -0.17853E-01  1584   0.725E-01    0.167E-01
RMM:   2    -0.115943269334E+04   -0.28348E-04   -0.29520E-03  1440   0.881E-02    0.146E-01
RMM:   3    -0.115943235166E+04    0.34169E-03   -0.30957E-04  1001   0.254E-02    0.108E-01
RMM:   4    -0.115943210219E+04    0.24947E-03   -0.15224E-03  1440   0.469E-02    0.314E-02
RMM:   5    -0.115943208914E+04    0.13049E-04   -0.22858E-05   858   0.840E-03
   5 F= -.11666442E+04 E0= -.11666358E+04  d E =-.106038E-02  mag=    -0.6898
       N       E                     dE             d eps       ncg     rms          rms(c)
DAV:   1    -0.115943260304E+04   -0.50085E-03   -0.22139E-01  1584   0.818E-01    0.107E-01
RMM:   2    -0.115943290457E+04   -0.30153E-03   -0.45584E-03  1440   0.112E-01    0.106E-01
RMM:   3    -0.115943285327E+04    0.51299E-04   -0.20711E-04   984   0.228E-02
   6 F= -.11666449E+04 E0= -.11666364E+04  d E =-.632471E-03  mag=    -0.6886
       N       E                     dE             d eps       ncg     rms          rms(c)
DAV:   1    -0.115943268023E+04    0.22433E-03   -0.44608E-03  1584   0.117E-01    0.370E-02
RMM:   2    -0.115943270108E+04   -0.20845E-04   -0.33570E-04  1048   0.312E-02
   7 F= -.11666447E+04 E0= -.11666363E+04  d E =-.492569E-03  mag=    -0.6884
