       N       E                     dE             d eps       ncg     rms          rms(c)
DAV:   1     0.498423818384E+04    0.49842E+04   -0.17622E+05  1872   0.923E+02
DAV:   2    -0.326734780179E+02   -0.50169E+04   -0.45857E+04  2520   0.208E+02
DAV:   3    -0.119588613177E+04   -0.11632E+04   -0.11586E+04  2088   0.112E+02
DAV:   4    -0.124308628677E+04   -0.47200E+02   -0.46940E+02  2016   0.301E+01
DAV:   5    -0.124432033503E+04   -0.12340E+01   -0.12309E+01  2340   0.455E+00    0.759E+01
RMM:   6    -0.122263344851E+04    0.21687E+02   -0.21928E+01  1717   0.454E+00    0.592E+01
RMM:   7    -0.119806844114E+04    0.24565E+02   -0.25322E+01  1606   0.581E+00    0.400E+01
RMM:   8    -0.117585550448E+04    0.22213E+02   -0.37119E+01  1592   0.694E+00    0.255E+01
RMM:   9    -0.117383805122E+04    0.20175E+01   -0.31942E+01  1594   0.634E+00    0.115E+01
RMM:  10    -0.117458201586E+04   -0.74396E+00   -0.21659E+00  1687   0.185E+00    0.786E+00
RMM:  11    -0.117371787973E+04    0.86414E+00   -0.78919E-01  1603   0.980E-01    0.509E+00
RMM:  12    -0.117340625639E+04    0.31162E+00   -0.13396E+00  1586   0.128E+00    0.145E+00
RMM:  13    -0.117336030642E+04    0.45950E-01   -0.11636E-01  1729   0.386E-01    0.530E-01
RMM:  14    -0.117335806471E+04    0.22417E-02   -0.27416E-02  1682   0.197E-01    0.310E-01
RMM:  15    -0.117335737071E+04    0.69400E-03   -0.51231E-03  1738   0.880E-02    0.169E-01
RMM:  16    -0.117335751747E+04   -0.14676E-03   -0.15358E-03  1606   0.459E-02    0.126E-01
RMM:  17    -0.117335763144E+04   -0.11397E-03   -0.11253E-03  1587   0.417E-02    0.719E-02
RMM:  18    -0.117335770350E+04   -0.72055E-04   -0.34258E-04  1209   0.223E-02
   1 F= -.11806465E+04 E0= -.11806465E+04  d E =-.118065E+04  mag=    -0.0096
       N       E                     dE             d eps       ncg     rms          rms(c)
DAV:   1    -0.117334838544E+04    0.92460E-02   -0.85108E-01  1692   0.134E+00    0.505E-01
RMM:   2    -0.117335401625E+04   -0.56308E-02   -0.71490E-02  1818   0.292E-01    0.577E-01
RMM:   3    -0.117335418641E+04   -0.17016E-03   -0.36076E-03  1539   0.627E-02    0.619E-01
RMM:   4    -0.117335431882E+04   -0.13240E-03   -0.61874E-04  1186   0.213E-02    0.669E-01
RMM:   5    -0.117335396820E+04    0.35061E-03   -0.14117E-03  1556   0.396E-02    0.331E-01
RMM:   6    -0.117335463561E+04   -0.66741E-03   -0.35766E-03  1606   0.637E-02    0.416E-01
RMM:   7    -0.117335405788E+04    0.57772E-03   -0.42298E-04  1292   0.238E-02    0.303E-01
RMM:   8    -0.117335387700E+04    0.18088E-03   -0.38054E-04  1280   0.209E-02    0.205E-01
RMM:   9    -0.117335385777E+04    0.19233E-04   -0.87116E-05  1020   0.133E-02
   2 F= -.11806437E+04 E0= -.11806437E+04  d E =0.283300E-02  mag=     0.0005
       N       E                     dE             d eps       ncg     rms          rms(c)
DAV:   1    -0.117335552428E+04   -0.16473E-02   -0.42910E-01  1620   0.955E-01    0.344E-01
RMM:   2    -0.117335829334E+04   -0.27691E-02   -0.35190E-02  1818   0.200E-01    0.446E-01
RMM:   3    -0.117335838060E+04   -0.87257E-04   -0.16943E-03  1281   0.421E-02    0.506E-01
RMM:   4    -0.117335824764E+04    0.13296E-03   -0.34656E-04  1114   0.183E-02    0.462E-01
RMM:   5    -0.117335818392E+04    0.63720E-04   -0.14658E-03  1531   0.397E-02    0.319E-01
RMM:   6    -0.117335815982E+04    0.24098E-04   -0.67138E-05  1040   0.132E-02
   3 F= -.11806473E+04 E0= -.11806473E+04  d E =-.746613E-03  mag=    -0.0000
