       N       E                     dE             d eps       ncg     rms          rms(c)
DAV:   1     0.487517445504E+04    0.48752E+04   -0.16914E+05  1836   0.903E+02
DAV:   2    -0.605061208543E+02   -0.49357E+04   -0.44837E+04  2520   0.206E+02
DAV:   3    -0.118629545799E+04   -0.11258E+04   -0.11212E+04  2124   0.109E+02
DAV:   4    -0.123097102659E+04   -0.44676E+02   -0.44454E+02  2088   0.286E+01
DAV:   5    -0.123211857042E+04   -0.11475E+01   -0.11447E+01  2304   0.422E+00    0.662E+01
RMM:   6    -0.121546150789E+04    0.16657E+02   -0.21638E+01  1584   0.443E+00    0.517E+01
RMM:   7    -0.119663925491E+04    0.18822E+02   -0.13384E+01  1584   0.424E+00    0.393E+01
RMM:   8    -0.116992310131E+04    0.26716E+02   -0.42075E+01  1584   0.740E+00    0.245E+01
RMM:   9    -0.116762621027E+04    0.22969E+01   -0.39905E+01  1584   0.709E+00    0.942E+00
RMM:  10    -0.116769048468E+04   -0.64274E-01   -0.14740E+00  1616   0.156E+00    0.807E+00
RMM:  11    -0.116676040128E+04    0.93008E+00   -0.20820E+00  1584   0.149E+00    0.395E+00
RMM:  12    -0.116649279703E+04    0.26760E+00   -0.26120E-01  1585   0.558E-01    0.180E+00
RMM:  13    -0.116644191357E+04    0.50883E-01   -0.16644E-01  1584   0.438E-01    0.973E-01
RMM:  14    -0.116642702569E+04    0.14888E-01   -0.63205E-02  1584   0.286E-01    0.291E-01
RMM:  15    -0.116642683170E+04    0.19400E-03   -0.43589E-03  1641   0.838E-02    0.188E-01
RMM:  16    -0.116642708788E+04   -0.25618E-03   -0.12160E-03  1563   0.390E-02    0.120E-01
RMM:  17    -0.116642738282E+04   -0.29494E-03   -0.54557E-04  1280   0.303E-02    0.793E-02
RMM:  18    -0.116642741031E+04   -0.27491E-04   -0.66693E-05  1049   0.115E-02
   1 F= -.11736962E+04 E0= -.11736962E+04  d E =-.117370E+04  mag=    -0.0021
       N       E                     dE             d eps       ncg     rms          rms(c)
DAV:   1    -0.116642570930E+04    0.16735E-02   -0.96588E-01  1728   0.148E+00    0.457E-01
RMM:   2    -0.116642738730E+04   -0.16780E-02   -0.22283E-02  1584   0.201E-01    0.430E-01
RMM:   3    -0.116642701044E+04    0.37686E-03   -0.14971E-03  1621   0.460E-02    0.377E-01
RMM:   4    -0.116642645628E+04    0.55416E-03   -0.54795E-03  1584   0.819E-02    0.869E-02
RMM:   5    -0.116642636995E+04    0.86337E-04   -0.93001E-05  1062   0.150E-02
   2 F= -.11736960E+04 E0= -.11736960E+04  d E =0.244541E-03  mag=    -0.0011
       N       E                     dE             d eps       ncg     rms          rms(c)
DAV:   1    -0.116642861922E+04   -0.21629E-02   -0.23653E-01  1836   0.730E-01    0.221E-01
RMM:   2    -0.116642893732E+04   -0.31810E-03   -0.47018E-03  1587   0.935E-02    0.204E-01
RMM:   3    -0.116642879172E+04    0.14561E-03   -0.29055E-04  1161   0.219E-02    0.168E-01
RMM:   4    -0.116642866417E+04    0.12754E-03   -0.13833E-03  1584   0.420E-02    0.328E-02
RMM:   5    -0.116642863706E+04    0.27117E-04   -0.21315E-05  1012   0.752E-03
   3 F= -.11736978E+04 E0= -.11736978E+04  d E =-.162666E-02  mag=    -0.0008
       N       E                     dE             d eps       ncg     rms          rms(c)
DAV:   1    -0.116643071600E+04   -0.20518E-02   -0.40249E-01  1692   0.951E-01    0.235E-01
RMM:   2    -0.116643098951E+04   -0.27351E-03   -0.72107E-03  1584   0.124E-01    0.208E-01
RMM:   3    -0.116643057872E+04    0.41079E-03   -0.54925E-04  1342   0.308E-02    0.172E-01
RMM:   4    -0.116643023255E+04    0.34617E-03   -0.25799E-03  1584   0.551E-02    0.629E-02
RMM:   5    -0.116643019729E+04    0.35260E-04   -0.51181E-05  1025   0.106E-02
   4 F= -.11736995E+04 E0= -.11736995E+04  d E =-.166652E-02  mag=    -0.0003
       N       E                     dE             d eps       ncg     rms          rms(c)
DAV:   1    -0.116643018418E+04    0.48369E-04   -0.77981E-04  1836   0.437E-02    0.175E-02
RMM:   2    -0.116643018437E+04   -0.18988E-06   -0.26699E-05   990   0.844E-03
   5 F= -.11736995E+04 E0= -.11736995E+04  d E =-.164889E-02  mag=    -0.0000
       N       E                     dE             d eps       ncg     rms          rms(c)
DAV:   1    -0.116643172945E+04   -0.15453E-02   -0.41048E-01  1764   0.954E-01    0.130E-01
RMM:   2    -0.116643220926E+04   -0.47981E-03   -0.66949E-03  1584   0.124E-01    0.128E-01
RMM:   3    -0.116643217201E+04    0.37244E-04   -0.33149E-04  1202   0.258E-02
   6 F= -.11737014E+04 E0= -.11737014E+04  d E =-.193956E-02  mag=     0.0000
       N       E                     dE             d eps       ncg     rms          rms(c)
DAV:   1    -0.116643193253E+04    0.27673E-03   -0.16449E-01  1800   0.604E-01    0.130E-01
RMM:   2    -0.116643201424E+04   -0.81708E-04   -0.22002E-03  1584   0.703E-02    0.121E-01
RMM:   3    -0.116643196563E+04    0.48605E-04   -0.13356E-04  1099   0.167E-02
   7 F= -.11737012E+04 E0= -.11737012E+04  d E =-.170416E-02  mag=    -0.0000
       N       E                     dE             d eps       ncg     rms          rms(c)
DAV:   1    -0.116643064547E+04    0.13688E-02   -0.59155E-01  1728   0.118E+00    0.221E-01
RMM:   2    -0.116643184679E+04   -0.12013E-02   -0.15081E-02  1584   0.184E-01    0.212E-01
RMM:   3    -0.116643171935E+04    0.12744E-03   -0.73306E-04  1338   0.351E-02    0.199E-01
RMM:   4    -0.116643120001E+04    0.51934E-03   -0.20179E-03  1574   0.493E-02    0.926E-02
RMM:   5    -0.116643121861E+04   -0.18607E-04   -0.38703E-04  1268   0.233E-02
   8 F= -.11737012E+04 E0= -.11737012E+04  d E =-.526880E-04  mag=    -0.0000
       N       E                     dE             d eps       ncg     rms          rms(c)
DAV:   1    -0.116643328112E+04   -0.20811E-02   -0.15351E-01  1728   0.600E-01    0.108E-01
RMM:   2    -0.116643354882E+04   -0.26771E-03   -0.33918E-03  1582   0.859E-02    0.100E-01
RMM:   3    -0.116643350580E+04    0.43026E-04   -0.16157E-04  1072   0.176E-02
   9 F= -.11737031E+04 E0= -.11737031E+04  d E =-.192699E-02  mag=     0.0000
