       N       E                     dE             d eps       ncg     rms          rms(c)
DAV:   1     0.494749073912E+04    0.49475E+04   -0.17543E+05  1872   0.920E+02
DAV:   2    -0.520494763213E+02   -0.49995E+04   -0.45779E+04  2520   0.208E+02
DAV:   3    -0.119382242842E+04   -0.11418E+04   -0.11359E+04  2052   0.110E+02
DAV:   4    -0.124072914870E+04   -0.46907E+02   -0.46655E+02  2016   0.297E+01
DAV:   5    -0.124193594841E+04   -0.12068E+01   -0.12042E+01  2340   0.445E+00    0.709E+01
RMM:   6    -0.122235880590E+04    0.19577E+02   -0.21809E+01  1586   0.462E+00    0.534E+01
RMM:   7    -0.120430108062E+04    0.18058E+02   -0.12015E+01  1584   0.405E+00    0.406E+01
RMM:   8    -0.118205797643E+04    0.22243E+02   -0.25146E+01  1584   0.577E+00    0.278E+01
RMM:   9    -0.117207610012E+04    0.99819E+01   -0.22400E+01  1584   0.541E+00    0.182E+01
RMM:  10    -0.117346713997E+04   -0.13910E+01   -0.14866E+01  1584   0.441E+00    0.823E+00
RMM:  11    -0.117282288058E+04    0.64426E+00   -0.73192E-01  1595   0.107E+00    0.448E+00
RMM:  12    -0.117251344043E+04    0.30944E+00   -0.59226E-01  1584   0.865E-01    0.220E+00
RMM:  13    -0.117244596158E+04    0.67479E-01   -0.20241E-01  1584   0.475E-01    0.913E-01
RMM:  14    -0.117244590128E+04    0.60299E-04   -0.27939E-02  1592   0.195E-01    0.455E-01
RMM:  15    -0.117244544872E+04    0.45256E-03   -0.60433E-03  1590   0.913E-02    0.358E-01
RMM:  16    -0.117244698497E+04   -0.15362E-02   -0.12494E-02  1584   0.125E-01    0.238E-01
RMM:  17    -0.117244549126E+04    0.14937E-02   -0.23878E-03  1584   0.555E-02    0.137E-01
RMM:  18    -0.117244541473E+04    0.76532E-04   -0.17786E-03  1584   0.473E-02    0.856E-02
RMM:  19    -0.117244545036E+04   -0.35628E-04   -0.10562E-03  1578   0.364E-02    0.803E-02
RMM:  20    -0.117244538445E+04    0.65905E-04   -0.82408E-05  1017   0.117E-02
   1 F= -.11795875E+04 E0= -.11795875E+04  d E =-.117959E+04  mag=     0.0003
       N       E                     dE             d eps       ncg     rms          rms(c)
DAV:   1    -0.117239336538E+04    0.52085E-01   -0.80847E+00  1584   0.392E+00    0.235E+00
RMM:   2    -0.117242305929E+04   -0.29694E-01   -0.35585E-01  1584   0.641E-01    0.230E+00
RMM:   3    -0.117241929147E+04    0.37678E-02   -0.11527E-02  1698   0.917E-02    0.210E+00
RMM:   4    -0.117241792744E+04    0.13640E-02   -0.14683E-02  1584   0.131E-01    0.386E-01
RMM:   5    -0.117241799982E+04   -0.72387E-04   -0.83629E-04  1291   0.314E-02
   2 F= -.11795631E+04 E0= -.11795631E+04  d E =0.244528E-01  mag=    -0.0000
       N       E                     dE             d eps       ncg     rms          rms(c)
DAV:   1    -0.117243903925E+04   -0.21112E-01   -0.40230E+00  1656   0.284E+00    0.154E+00
RMM:   2    -0.117245283092E+04   -0.13792E-01   -0.17904E-01  1584   0.446E-01    0.166E+00
RMM:   3    -0.117245194063E+04    0.89028E-03   -0.48002E-03  1445   0.617E-02    0.176E+00
RMM:   4    -0.117244887538E+04    0.30653E-02   -0.96615E-03  1584   0.108E-01    0.610E-01
RMM:   5    -0.117244904869E+04   -0.17332E-03   -0.23089E-03  1541   0.503E-02    0.204E-01
RMM:   6    -0.117244891091E+04    0.13779E-03   -0.10428E-04  1056   0.112E-02    0.185E-01
RMM:   7    -0.117244862379E+04    0.28712E-03   -0.12829E-03  1516   0.377E-02    0.120E-01
RMM:   8    -0.117244861780E+04    0.59916E-05   -0.44594E-05  1008   0.887E-03
   3 F= -.11795916E+04 E0= -.11795916E+04  d E =-.410497E-02  mag=     0.0000
       N       E                     dE             d eps       ncg     rms          rms(c)
DAV:   1    -0.117244905545E+04   -0.43166E-03   -0.62904E-01  1692   0.130E+00    0.277E-01
RMM:   2    -0.117245068513E+04   -0.16297E-02   -0.20031E-02  1584   0.189E-01    0.256E-01
RMM:   3    -0.117245033458E+04    0.35055E-03   -0.75177E-04  1295   0.330E-02    0.229E-01
RMM:   4    -0.117244996257E+04    0.37201E-03   -0.16754E-03  1584   0.460E-02    0.779E-02
RMM:   5    -0.117245001706E+04   -0.54490E-04   -0.24620E-04  1150   0.193E-02
   4 F= -.11795932E+04 E0= -.11795932E+04  d E =-.161339E-02  mag=    -0.0000
       N       E                     dE             d eps       ncg     rms          rms(c)
DAV:   1    -0.117245005651E+04   -0.93942E-04   -0.19606E-02  1584   0.231E-01    0.515E-02
RMM:   2    -0.117245008566E+04   -0.29151E-04   -0.56726E-04  1150   0.318E-02
   5 F= -.11795933E+04 E0= -.11795933E+04  d E =-.164365E-02  mag=    -0.0000
       N       E                     dE             d eps       ncg     rms          rms(c)
DAV:   1    -0.117244889389E+04    0.11626E-02   -0.40968E-01  1872   0.114E+00    0.209E-01
RMM:   2    -0.117245052070E+04   -0.16268E-02   -0.18497E-02  1584   0.170E-01    0.190E-01
RMM:   3    -0.117245033050E+04    0.19020E-03   -0.59506E-04  1180   0.277E-02    0.174E-01
RMM:   4    -0.117245024187E+04    0.88634E-04   -0.11978E-03  1552   0.397E-02    0.639E-02
RMM:   5    -0.117245025500E+04   -0.13135E-04   -0.82564E-05  1030   0.127E-02
   6 F= -.11795932E+04 E0= -.11795932E+04  d E =0.551447E-04  mag=    -0.0000
       N       E                     dE             d eps       ncg     rms          rms(c)
DAV:   1    -0.117245029722E+04   -0.55351E-04   -0.10624E-01  1872   0.581E-01    0.107E-01
RMM:   2    -0.117245068111E+04   -0.38389E-03   -0.46787E-03  1550   0.830E-02    0.970E-02
RMM:   3    -0.117245061839E+04    0.62719E-04   -0.14739E-04  1020   0.141E-02
   7 F= -.11795937E+04 E0= -.11795937E+04  d E =-.422748E-03  mag=     0.0000
