       N       E                     dE             d eps       ncg     rms          rms(c)
DAV:   1     0.483420784085E+04    0.48342E+04   -0.16986E+05  1872   0.899E+02
DAV:   2    -0.581088494192E+02   -0.48923E+04   -0.44555E+04  2520   0.206E+02
DAV:   3    -0.117110738696E+04   -0.11130E+04   -0.11057E+04  2052   0.110E+02
DAV:   4    -0.122801689480E+04   -0.56910E+02   -0.56629E+02  2124   0.338E+01
DAV:   5    -0.123023535930E+04   -0.22185E+01   -0.22135E+01  2376   0.597E+00    0.605E+01
RMM:   6    -0.121652347379E+04    0.13712E+02   -0.73416E+00  1730   0.329E+00    0.492E+01
RMM:   7    -0.117624094440E+04    0.40283E+02   -0.54860E+01  1850   0.958E+00    0.293E+01
RMM:   8    -0.116516268155E+04    0.11078E+02   -0.16811E+01  1810   0.826E+00    0.223E+01
RMM:   9    -0.116269362913E+04    0.24691E+01   -0.28444E+01  1755   0.747E+00    0.106E+01
RMM:  10    -0.116383930564E+04   -0.11457E+01   -0.53649E+00  1780   0.802E+00    0.830E+00
RMM:  11    -0.116346073519E+04    0.37857E+00   -0.86291E-01  1975   0.153E+00    0.530E+00
RMM:  12    -0.116320957360E+04    0.25116E+00   -0.20263E+00  1663   0.170E+00    0.177E+00
RMM:  13    -0.116324971774E+04   -0.40144E-01   -0.23520E-01  1685   0.182E+00    0.732E-01
RMM:  14    -0.116329515301E+04   -0.45435E-01   -0.49565E-02  2030   0.286E-01    0.538E-01
RMM:  15    -0.116334958881E+04   -0.54436E-01   -0.19917E-02  1833   0.162E-01    0.339E-01
RMM:  16    -0.116338978278E+04   -0.40194E-01   -0.81874E-02  1806   0.182E-01    0.284E-01
RMM:  17    -0.116341111382E+04   -0.21331E-01   -0.87034E-02  1447   0.158E-01    0.298E-01
RMM:  18    -0.116341384229E+04   -0.27285E-02   -0.23928E-02  1204   0.630E-02    0.356E-01
RMM:  19    -0.116340946789E+04    0.43744E-02   -0.47868E-03  1163   0.490E-02    0.320E-01
RMM:  20    -0.116338578762E+04    0.23680E-01   -0.40867E-02  1230   0.963E-02    0.182E-01
RMM:  21    -0.116339062797E+04   -0.48404E-02   -0.25779E-03  1126   0.639E-02    0.170E-01
RMM:  22    -0.116338153691E+04    0.90911E-02   -0.61215E-03  1140   0.443E-02    0.123E-01
RMM:  23    -0.116337491201E+04    0.66249E-02   -0.59281E-03  1159   0.518E-02    0.904E-02
RMM:  24    -0.116337486838E+04    0.43627E-04   -0.12246E-03  1100   0.311E-02    0.831E-02
RMM:  25    -0.116337396376E+04    0.90462E-03   -0.74985E-04  1092   0.230E-02    0.761E-02
RMM:  26    -0.116337304394E+04    0.91982E-03   -0.53417E-04  1080   0.206E-02    0.694E-02
RMM:  27    -0.116337316172E+04   -0.11778E-03   -0.19664E-04  1061   0.158E-02    0.680E-02
RMM:  28    -0.116337288415E+04    0.27757E-03   -0.60720E-04  1058   0.172E-02    0.619E-02
RMM:  29    -0.116337292427E+04   -0.40125E-04   -0.13117E-04   996   0.132E-02
   1 F= -.11703787E+04 E0= -.11703787E+04  d E =-.117038E+04  mag=     1.9999
       N       E                     dE             d eps       ncg     rms          rms(c)
DAV:   1    -0.116333247226E+04    0.40412E-01   -0.48844E-01  1692   0.104E+00    0.212E-01
RMM:   2    -0.116337217894E+04   -0.39707E-01   -0.40288E-02  1814   0.182E-01    0.191E-01
RMM:   3    -0.116340417817E+04   -0.31999E-01   -0.55481E-02  1465   0.166E-01    0.234E-01
RMM:   4    -0.116340868367E+04   -0.45055E-02   -0.80743E-03  1205   0.616E-02    0.295E-01
RMM:   5    -0.116344983032E+04   -0.41147E-01   -0.12904E-01  1216   0.143E-01    0.584E-01
RMM:   6    -0.116343805776E+04    0.11773E-01   -0.14010E-02  1135   0.122E-01    0.576E-01
RMM:   7    -0.116336286845E+04    0.75189E-01   -0.87858E-02  1199   0.115E-01    0.126E-01
RMM:   8    -0.116332882185E+04    0.34047E-01   -0.11678E-02  1216   0.723E-02    0.115E-01
RMM:   9    -0.116330535479E+04    0.23467E-01   -0.53703E-03  1189   0.532E-02    0.110E-01
RMM:  10    -0.116328962001E+04    0.15735E-01   -0.12644E-02  1247   0.734E-02    0.992E-02
RMM:  11    -0.116325214442E+04    0.37476E-01   -0.27904E-02  1279   0.104E-01    0.928E-02
RMM:  12    -0.116324520531E+04    0.69391E-02   -0.39098E-03  1162   0.815E-02    0.965E-02
RMM:  13    -0.116322910165E+04    0.16104E-01   -0.97608E-03  1187   0.619E-02    0.892E-02
RMM:  14    -0.116320643506E+04    0.22667E-01   -0.99295E-03  1176   0.795E-02    0.920E-02
RMM:  15    -0.116317885158E+04    0.27583E-01   -0.78254E-03  1190   0.642E-02    0.925E-02
RMM:  16    -0.116314429916E+04    0.34552E-01   -0.71594E-03  1197   0.708E-02    0.108E-01
RMM:  17    -0.116312073342E+04    0.23566E-01   -0.32572E-03  1186   0.503E-02    0.116E-01
RMM:  18    -0.116309942850E+04    0.21305E-01   -0.17051E-03  1147   0.420E-02    0.121E-01
RMM:  19    -0.116308120783E+04    0.18221E-01   -0.13232E-03  1128   0.360E-02    0.126E-01
RMM:  20    -0.116291191852E+04    0.16929E+00   -0.33263E-02  1406   0.131E-01    0.171E-01
RMM:  21    -0.116296431300E+04   -0.52394E-01   -0.26567E-03  1169   0.795E-02    0.164E-01
RMM:  22    -0.116289456072E+04    0.69752E-01   -0.31956E-03  1167   0.412E-02    0.180E-01
RMM:  23    -0.116285605693E+04    0.38504E-01   -0.17529E-03  1145   0.415E-02    0.195E-01
RMM:  24    -0.116280441805E+04    0.51639E-01   -0.21789E-03  1171   0.421E-02    0.208E-01
RMM:  25    -0.116281408707E+04   -0.96690E-02   -0.25227E-04  1068   0.313E-02    0.210E-01
RMM:  26    -0.116281892565E+04   -0.48386E-02   -0.86742E-05   933   0.106E-02    0.209E-01
RMM:  27    -0.116281874918E+04    0.17647E-03   -0.13258E-05   879   0.842E-03    0.209E-01
RMM:  28    -0.116281859332E+04    0.15586E-03   -0.58120E-06   662   0.460E-03    0.209E-01
RMM:  29    -0.116277855837E+04    0.40035E-01   -0.10263E-03  1056   0.247E-02    0.217E-01
RMM:  30    -0.116278390918E+04   -0.53508E-02   -0.88421E-05   964   0.195E-02    0.220E-01
RMM:  31    -0.116278908878E+04   -0.51796E-02   -0.25083E-05   654   0.521E-03    0.218E-01
RMM:  32    -0.116278679686E+04    0.22919E-02   -0.55087E-06   606   0.451E-03    0.218E-01
RMM:  33    -0.116278744723E+04   -0.65037E-03   -0.14352E-06   494   0.330E-03    0.218E-01
RMM:  34    -0.116278184917E+04    0.55981E-02   -0.20302E-05   606   0.506E-03    0.219E-01
RMM:  35    -0.116279417343E+04   -0.12324E-01   -0.73591E-05   629   0.758E-03    0.216E-01
RMM:  36    -0.116275861593E+04    0.35557E-01   -0.54264E-04   966   0.178E-02    0.225E-01
RMM:  37    -0.116276327123E+04   -0.46553E-02   -0.78204E-05   874   0.144E-02    0.226E-01
RMM:  38    -0.116276930141E+04   -0.60302E-02   -0.13738E-05   545   0.465E-03    0.224E-01
RMM:  39    -0.116277304215E+04   -0.37407E-02   -0.44721E-06   506   0.414E-03    0.223E-01
RMM:  40    -0.116279507220E+04   -0.22030E-01   -0.42547E-05   692   0.645E-03    0.217E-01
RMM:  41    -0.116285748266E+04   -0.62410E-01   -0.13473E-03  1054   0.276E-02    0.206E-01
RMM:  42    -0.116291292453E+04   -0.55442E-01   -0.15398E-03  1086   0.351E-02    0.183E-01
RMM:  43    -0.116335787941E+04   -0.44495E+00   -0.27311E-01  1632   0.218E-01    0.334E-01
RMM:  44    -0.116336581255E+04   -0.79331E-02   -0.40169E-02  1314   0.267E-01    0.114E-01
RMM:  45    -0.116340990050E+04   -0.44088E-01   -0.26782E-01  1333   0.115E-01    0.184E-01
RMM:  46    -0.116342603509E+04   -0.16135E-01   -0.37623E-02  1196   0.982E-02    0.437E-01
RMM:  47    -0.116363947473E+04   -0.21344E+00   -0.85768E-01  1507   0.124E-01    0.383E+00
RMM:  48    -0.116343941282E+04    0.20006E+00   -0.33591E-01  1254   0.229E-01    0.835E-01
RMM:  49    -0.116378592711E+04   -0.34651E+00   -0.32811E-01  1266   0.999E-02    0.433E+00
RMM:  50    -0.116358287157E+04    0.20306E+00   -0.10855E-01  1239   0.156E-01    0.355E+00
RMM:  51    -0.116364445106E+04   -0.61579E-01   -0.11583E-02  1149   0.567E-02    0.401E+00
RMM:  52    -0.116364873023E+04   -0.42792E-02   -0.20551E-03  1126   0.276E-02    0.403E+00
RMM:  53    -0.116368467346E+04   -0.35943E-01   -0.56949E-03  1110   0.355E-02    0.417E+00
RMM:  54    -0.116368368623E+04    0.98723E-03   -0.13082E-03  1067   0.265E-02    0.417E+00
RMM:  55    -0.116359764018E+04    0.86046E-01   -0.12189E-02  1072   0.347E-02    0.373E+00
RMM:  56    -0.116365740813E+04   -0.59768E-01   -0.70417E-03  1006   0.290E-02    0.408E+00
RMM:  57    -0.116386351692E+04   -0.20611E+00   -0.70061E-02  1234   0.700E-02    0.449E+00
RMM:  58    -0.116377347294E+04    0.90044E-01   -0.15019E-02  1110   0.739E-02    0.438E+00
RMM:  59    -0.116379228097E+04   -0.18808E-01   -0.15100E-03  1021   0.189E-02    0.440E+00
RMM:  60    -0.116379168446E+04    0.59651E-03   -0.85702E-05   968   0.116E-02    0.440E+00
RMM:  61    -0.116380509093E+04   -0.13406E-01   -0.39882E-04   846   0.845E-03    0.442E+00
RMM:  62    -0.116382731684E+04   -0.22226E-01   -0.11080E-03  1051   0.170E-02    0.444E+00
RMM:  63    -0.116381461528E+04    0.12702E-01   -0.40278E-04   959   0.153E-02    0.443E+00
RMM:  64    -0.116376170222E+04    0.52913E-01   -0.57096E-03   821   0.195E-02    0.434E+00
RMM:  65    -0.116376183206E+04   -0.12985E-03   -0.49670E-04   827   0.150E-02    0.434E+00
RMM:  66    -0.116374199564E+04    0.19836E-01   -0.75314E-04   856   0.997E-03    0.431E+00
RMM:  67    -0.116353505150E+04    0.20694E+00   -0.50503E-02  1227   0.591E-02    0.296E+00
RMM:  68    -0.116388076401E+04   -0.34571E+00   -0.19223E-01  1217   0.133E-01    0.447E+00
RMM:  69    -0.116384334698E+04    0.37417E-01   -0.23525E-02  1088   0.668E-02    0.447E+00
RMM:  70    -0.116376067171E+04    0.82675E-01   -0.11439E-02   993   0.361E-02    0.436E+00
RMM:  71    -0.116368313009E+04    0.77542E-01   -0.91292E-03  1028   0.286E-02    0.416E+00
RMM:  72    -0.116333312870E+04    0.35000E+00   -0.82498E-02  1557   0.127E-01    0.157E-01
RMM:  73    -0.116337671083E+04   -0.43582E-01   -0.27139E-02  1319   0.170E-01    0.127E-01
RMM:  74    -0.116339296749E+04   -0.16257E-01   -0.20810E-02  1237   0.760E-02    0.182E-01
RMM:  75    -0.116341813531E+04   -0.25168E-01   -0.71784E-02  1213   0.102E-01    0.285E-01
RMM:  76    -0.116345543156E+04   -0.37296E-01   -0.15778E-01  1195   0.108E-01    0.618E-01
RMM:  77    -0.116354607371E+04   -0.90642E-01   -0.27470E-01  1189   0.113E-01    0.239E+00
RMM:  78    -0.116353736824E+04    0.87055E-02   -0.90064E-02  1186   0.696E-02    0.273E+00
RMM:  79    -0.116346369440E+04    0.73674E-01   -0.30204E-02  1136   0.640E-02    0.119E+00
RMM:  80    -0.116367564939E+04   -0.21195E+00   -0.20424E-01  1152   0.911E-02    0.401E+00
RMM:  81    -0.116341321969E+04    0.26243E+00   -0.54472E-02  1181   0.115E-01    0.330E-01
RMM:  82    -0.116352742233E+04   -0.11420E+00   -0.15469E-01  1193   0.128E-01    0.226E+00
RMM:  83    -0.116340504735E+04    0.12237E+00   -0.83551E-02  1180   0.968E-02    0.254E-01
RMM:  84    -0.116342772350E+04   -0.22676E-01   -0.19569E-02  1169   0.856E-02    0.450E-01
RMM:  85    -0.116341645993E+04    0.11264E-01   -0.85056E-03  1118   0.490E-02    0.335E-01
RMM:  86    -0.116340002740E+04    0.16433E-01   -0.17272E-02  1135   0.537E-02    0.204E-01
RMM:  87    -0.116342836682E+04   -0.28339E-01   -0.43639E-02  1177   0.788E-02    0.388E-01
RMM:  88    -0.116344045166E+04   -0.12085E-01   -0.17145E-02  1098   0.549E-02    0.588E-01
RMM:  89    -0.116343319546E+04    0.72562E-02   -0.50176E-03  1033   0.330E-02    0.512E-01
RMM:  90    -0.116341556839E+04    0.17627E-01   -0.98942E-03   907   0.414E-02    0.318E-01
RMM:  91    -0.116340953318E+04    0.60352E-02   -0.44693E-03   904   0.375E-02    0.257E-01
RMM:  92    -0.116340170979E+04    0.78234E-02   -0.10039E-02   970   0.320E-02    0.203E-01
RMM:  93    -0.116339825110E+04    0.34587E-02   -0.29322E-03   989   0.342E-02    0.174E-01
RMM:  94    -0.116339450957E+04    0.37415E-02   -0.54974E-03  1005   0.274E-02    0.158E-01
RMM:  95    -0.116339769804E+04   -0.31885E-02   -0.10630E-03   888   0.289E-02    0.167E-01
RMM:  96    -0.116339812196E+04   -0.42393E-03   -0.40191E-04   714   0.132E-02    0.171E-01
RMM:  97    -0.116340247597E+04   -0.43540E-02   -0.13154E-03   736   0.164E-02    0.193E-01
RMM:  98    -0.116340127664E+04    0.11993E-02   -0.11608E-04   580   0.969E-03    0.186E-01
RMM:  99    -0.116340068960E+04    0.58704E-03   -0.40547E-05   512   0.510E-03    0.182E-01
RMM: 100    -0.116340141032E+04   -0.72072E-03   -0.59813E-05   496   0.530E-03
   2 F= -.11704075E+04 E0= -.11704075E+04  d E =-.287825E-01  mag=     1.9922
       N       E                     dE             d eps       ncg     rms          rms(c)
DAV:   1    -0.116340184704E+04   -0.11574E-02   -0.11833E-04  1188   0.654E-03    0.190E-01
RMM:   2    -0.116345569125E+04   -0.53844E-01   -0.19165E-01  1208   0.106E-01    0.556E-01
RMM:   3    -0.116337580414E+04    0.79887E-01   -0.75606E-02  1211   0.125E-01    0.171E-01
RMM:   4    -0.116337391436E+04    0.18898E-02   -0.10283E-02  1116   0.861E-02    0.729E-02
RMM:   5    -0.116336614155E+04    0.77728E-02   -0.14312E-02  1101   0.500E-02    0.616E-02
RMM:   6    -0.116336124221E+04    0.48993E-02   -0.39569E-03  1089   0.349E-02    0.593E-02
RMM:   7    -0.116335883610E+04    0.24061E-02   -0.10079E-03  1007   0.228E-02    0.549E-02
RMM:   8    -0.116335900410E+04   -0.16800E-03   -0.16561E-04   911   0.168E-02    0.583E-02
RMM:   9    -0.116335818551E+04    0.81859E-03   -0.16512E-04   769   0.105E-02    0.545E-02
RMM:  10    -0.116335533850E+04    0.28470E-02   -0.10914E-03   823   0.179E-02    0.523E-02
RMM:  11    -0.116335204971E+04    0.32888E-02   -0.16369E-03   874   0.234E-02    0.453E-02
RMM:  12    -0.116334367660E+04    0.83731E-02   -0.55215E-03  1007   0.384E-02    0.389E-02
RMM:  13    -0.116334572557E+04   -0.20490E-02   -0.58951E-04   948   0.322E-02    0.464E-02
RMM:  14    -0.116333971809E+04    0.60075E-02   -0.27607E-03  1057   0.276E-02    0.336E-02
RMM:  15    -0.116333769843E+04    0.20197E-02   -0.66086E-04  1002   0.269E-02    0.486E-02
RMM:  16    -0.116333444834E+04    0.32501E-02   -0.91319E-04   950   0.175E-02    0.388E-02
RMM:  17    -0.116333449552E+04   -0.47179E-04   -0.13235E-04   862   0.175E-02
   3 F= -.11703406E+04 E0= -.11703406E+04  d E =0.381320E-01  mag=     2.0001
