       N       E                     dE             d eps       ncg     rms          rms(c)
DAV:   1     0.475181520462E+04    0.47518E+04   -0.18026E+05  1888   0.956E+02
DAV:   2    -0.738916138887E+02   -0.48257E+04   -0.44228E+04  2464   0.215E+02
DAV:   3    -0.120206152571E+04   -0.11282E+04   -0.11208E+04  1984   0.111E+02
DAV:   4    -0.124954318364E+04   -0.47482E+02   -0.47169E+02  1984   0.300E+01
DAV:   5    -0.125071105881E+04   -0.11679E+01   -0.11647E+01  2272   0.438E+00    0.727E+01
RMM:   6    -0.123188268888E+04    0.18828E+02   -0.17651E+01  1586   0.499E+00    0.507E+01
RMM:   7    -0.121324696525E+04    0.18636E+02   -0.18224E+01  1538   0.529E+00    0.383E+01
RMM:   8    -0.118543411283E+04    0.27813E+02   -0.43535E+01  1569   0.844E+00    0.236E+01
RMM:   9    -0.118151135168E+04    0.39228E+01   -0.30884E+01  1536   0.731E+00    0.111E+01
RMM:  10    -0.118261759919E+04   -0.11062E+01   -0.48047E+00  1556   0.333E+00    0.853E+00
RMM:  11    -0.118196416462E+04    0.65343E+00   -0.79747E-01  1539   0.133E+00    0.495E+00
RMM:  12    -0.118169406004E+04    0.27010E+00   -0.10546E+00  1536   0.134E+00    0.158E+00
RMM:  13    -0.118165631417E+04    0.37746E-01   -0.14772E-01  1551   0.634E-01    0.774E-01
RMM:  14    -0.118165925039E+04   -0.29362E-02   -0.62108E-02  1548   0.355E-01    0.536E-01
RMM:  15    -0.118165725170E+04    0.19987E-02   -0.15434E-02  1601   0.197E-01    0.351E-01
RMM:  16    -0.118165753752E+04   -0.28582E-03   -0.12793E-02  1628   0.141E-01    0.246E-01
RMM:  17    -0.118165810117E+04   -0.56364E-03   -0.28722E-03  1589   0.777E-02    0.238E-01
RMM:  18    -0.118165801387E+04    0.87302E-04   -0.75526E-04  1720   0.355E-02    0.216E-01
RMM:  19    -0.118165808455E+04   -0.70685E-04   -0.33256E-04  1625   0.231E-02    0.156E-01
RMM:  20    -0.118165809848E+04   -0.13924E-04   -0.32291E-04  1579   0.231E-02    0.617E-02
RMM:  21    -0.118165811980E+04   -0.21320E-04   -0.11745E-04  1555   0.145E-02    0.446E-02
RMM:  22    -0.118165809526E+04    0.24536E-04   -0.56039E-05  1538   0.963E-03    0.206E-02
RMM:  23    -0.118165809536E+04   -0.10379E-06   -0.23786E-05  1585   0.599E-03    0.119E-02
RMM:  24    -0.118165809606E+04   -0.69967E-06   -0.13405E-05  1585   0.443E-03    0.564E-03
RMM:  25    -0.118165809520E+04    0.86846E-06   -0.47947E-06  1274   0.263E-03
   1 F= -.11887861E+04 E0= -.11887861E+04  d E =-.118879E+04  mag=     1.9999
       N       E                     dE             d eps       ncg     rms          rms(c)
DAV:   1    -0.118165663816E+04    0.14579E-02   -0.31807E-01  1632   0.103E+00    0.207E-01
RMM:   2    -0.118165759363E+04   -0.95547E-03   -0.11191E-02  1571   0.155E-01    0.204E-01
RMM:   3    -0.118165774383E+04   -0.15020E-03   -0.21217E-03  1691   0.604E-02    0.184E-01
RMM:   4    -0.118165772941E+04    0.14415E-04   -0.36335E-04  1768   0.261E-02    0.152E-01
RMM:   5    -0.118165774981E+04   -0.20396E-04   -0.50215E-04  1563   0.283E-02    0.788E-02
RMM:   6    -0.118165777409E+04   -0.24285E-04   -0.11955E-04  1707   0.156E-02    0.611E-02
RMM:   7    -0.118165777352E+04    0.57770E-06   -0.30428E-05  1546   0.784E-03    0.318E-02
RMM:   8    -0.118165777335E+04    0.16420E-06   -0.30106E-05  1554   0.639E-03    0.177E-02
RMM:   9    -0.118165777316E+04    0.19277E-06   -0.13952E-05  1636   0.465E-03    0.117E-02
RMM:  10    -0.118165777351E+04   -0.34936E-06   -0.49043E-06  1336   0.281E-03
   2 F= -.11887864E+04 E0= -.11887864E+04  d E =-.233872E-03  mag=     2.0000
       N       E                     dE             d eps       ncg     rms          rms(c)
DAV:   1    -0.118165818704E+04   -0.41388E-03   -0.60597E-02  1760   0.447E-01    0.897E-02
RMM:   2    -0.118165834034E+04   -0.15330E-03   -0.19337E-03  1552   0.662E-02    0.882E-02
RMM:   3    -0.118165835960E+04   -0.19264E-04   -0.33857E-04  1614   0.249E-02    0.798E-02
RMM:   4    -0.118165835894E+04    0.66722E-06   -0.63928E-05  1702   0.111E-02    0.643E-02
RMM:   5    -0.118165836307E+04   -0.41275E-05   -0.87591E-05  1560   0.121E-02    0.323E-02
RMM:   6    -0.118165836818E+04   -0.51107E-05   -0.20979E-05  1668   0.654E-03    0.248E-02
RMM:   7    -0.118165836949E+04   -0.13148E-05   -0.45538E-06  1298   0.319E-03    0.130E-02
RMM:   8    -0.118165836940E+04    0.93110E-07   -0.42940E-06  1305   0.247E-03
   3 F= -.11887867E+04 E0= -.11887867E+04  d E =-.587131E-03  mag=     2.0000
