       N       E                     dE             d eps       ncg     rms          rms(c)
DAV:   1     0.506041933952E+04    0.50604E+04   -0.17240E+05  1800   0.920E+02
DAV:   2    -0.508718669901E+01   -0.50655E+04   -0.46292E+04  2520   0.213E+02
DAV:   3    -0.117422748038E+04   -0.11691E+04   -0.11640E+04  2124   0.113E+02
DAV:   4    -0.122193592193E+04   -0.47708E+02   -0.47489E+02  2016   0.298E+01
DAV:   5    -0.122314379793E+04   -0.12079E+01   -0.12054E+01  2376   0.435E+00    0.613E+01
RMM:   6    -0.121150368984E+04    0.11640E+02   -0.72243E+00  1584   0.304E+00    0.505E+01
RMM:   7    -0.119579439367E+04    0.15709E+02   -0.11410E+01  1584   0.393E+00    0.413E+01
RMM:   8    -0.116807431071E+04    0.27720E+02   -0.36956E+01  1584   0.702E+00    0.286E+01
RMM:   9    -0.117055340714E+04   -0.24791E+01   -0.49216E+01  1584   0.802E+00    0.308E+01
RMM:  10    -0.116687319878E+04    0.36802E+01   -0.13900E+00  1647   0.154E+00    0.256E+01
RMM:  11    -0.116568376732E+04    0.11894E+01   -0.13920E-01  1687   0.453E-01    0.248E+01
RMM:  12    -0.116365274786E+04    0.20310E+01   -0.17226E+01  1584   0.215E+00    0.114E+01
RMM:  13    -0.116503519386E+04   -0.13824E+01   -0.16919E+00  1605   0.748E-01    0.120E+01
RMM:  14    -0.116300009051E+04    0.20351E+01   -0.30161E+00  1593   0.118E+00    0.717E+00
RMM:  15    -0.116319193045E+04   -0.19184E+00   -0.31980E-01  1585   0.616E-01    0.650E+00
RMM:  16    -0.116308259672E+04    0.10933E+00   -0.59053E-01  1584   0.692E-01    0.736E+00
RMM:  17    -0.116187760256E+04    0.12050E+01   -0.56087E-01  1602   0.353E-01    0.501E+00
RMM:  18    -0.116178920849E+04    0.88394E-01   -0.24871E-02  1602   0.967E-02    0.496E+00
RMM:  19    -0.116155409608E+04    0.23511E+00   -0.14852E-02  1544   0.810E-02    0.479E+00
RMM:  20    -0.116152489731E+04    0.29199E-01   -0.18365E-03  1252   0.247E-02    0.474E+00
RMM:  21    -0.116150050291E+04    0.24394E-01   -0.33541E-04  1148   0.157E-02    0.470E+00
RMM:  22    -0.116062950695E+04    0.87100E+00   -0.19787E-01  1584   0.262E-01    0.191E+00
RMM:  23    -0.116064407022E+04   -0.14563E-01   -0.14498E-02  1471   0.647E-02    0.372E+00
RMM:  24    -0.116064023049E+04    0.38397E-02   -0.10111E-03  1190   0.362E-02    0.441E+00
RMM:  25    -0.116064412771E+04   -0.38972E-02   -0.39687E-04  1088   0.202E-02    0.525E+00
RMM:  26    -0.116063281869E+04    0.11309E-01   -0.30377E-04  1074   0.230E-02    0.499E+00
RMM:  27    -0.116063680898E+04   -0.39903E-02   -0.17474E-04  1038   0.148E-02    0.557E+00
RMM:  28    -0.116063332376E+04    0.34852E-02   -0.10383E-04  1009   0.120E-02    0.574E+00
RMM:  29    -0.116083760165E+04   -0.20428E+00   -0.33396E-03  1385   0.380E-02    0.115E+01
RMM:  30    -0.116075823098E+04    0.79371E-01   -0.11024E-03  1174   0.436E-02    0.121E+01
RMM:  31    -0.116087079097E+04   -0.11256E+00   -0.13571E-03  1270   0.307E-02    0.123E+01
RMM:  32    -0.116083368045E+04    0.37111E-01   -0.95884E-05  1029   0.108E-02    0.123E+01
RMM:  33    -0.116113029795E+04   -0.29662E+00   -0.59721E-03  1425   0.422E-02    0.129E+01
RMM:  34    -0.116133543126E+04   -0.20513E+00   -0.76900E-03  1531   0.591E-02    0.133E+01
RMM:  35    -0.116149210735E+04   -0.15668E+00   -0.36337E-03  1345   0.356E-02    0.135E+01
RMM:  36    -0.116151213452E+04   -0.20027E-01   -0.61401E-04  1158   0.246E-02    0.136E+01
RMM:  37    -0.116163082995E+04   -0.11870E+00   -0.26906E-03  1563   0.474E-02    0.138E+01
RMM:  38    -0.116149973504E+04    0.13109E+00   -0.35514E-03  1519   0.484E-02    0.136E+01
RMM:  39    -0.116174956636E+04   -0.24983E+00   -0.40550E-03  1527   0.487E-02    0.139E+01
RMM:  40    -0.116224257742E+04   -0.49301E+00   -0.51314E-03  1520   0.522E-02    0.197E+01
RMM:  41    -0.116206559700E+04    0.17698E+00   -0.17689E-03  1283   0.572E-02    0.190E+01
RMM:  42    -0.116157343582E+04    0.49216E+00   -0.64423E-03  1462   0.482E-02    0.136E+01
RMM:  43    -0.116250879762E+04   -0.93536E+00   -0.11312E-02  1567   0.906E-02    0.202E+01
RMM:  44    -0.116197297643E+04    0.53582E+00   -0.26009E-03  1341   0.603E-02    0.177E+01
RMM:  45    -0.116183941425E+04    0.13356E+00   -0.16451E-03  1394   0.340E-02    0.144E+01
RMM:  46    -0.116207286600E+04   -0.23345E+00   -0.15868E-03  1386   0.458E-02    0.169E+01
RMM:  47    -0.116191444091E+04    0.15843E+00   -0.91478E-04  1260   0.314E-02    0.140E+01
RMM:  48    -0.116222579425E+04   -0.31135E+00   -0.18402E-03  1438   0.428E-02    0.180E+01
RMM:  49    -0.116200856058E+04    0.21723E+00   -0.15174E-03  1300   0.434E-02    0.139E+01
RMM:  50    -0.116218986406E+04   -0.18130E+00   -0.12584E-03  1272   0.410E-02    0.154E+01
RMM:  51    -0.116419348074E+04   -0.20036E+01   -0.55652E-02  1584   0.174E-01    0.208E+01
RMM:  52    -0.116366628654E+04    0.52719E+00   -0.22008E-03  1347   0.560E-02    0.207E+01
RMM:  53    -0.116341180416E+04    0.25448E+00   -0.16235E-03  1355   0.346E-02    0.206E+01
RMM:  54    -0.116274209667E+04    0.66971E+00   -0.72617E-03  1576   0.683E-02    0.204E+01
RMM:  55    -0.116261962872E+04    0.12247E+00   -0.12013E-03  1442   0.305E-02    0.204E+01
RMM:  56    -0.116222550356E+04    0.39413E+00   -0.20743E-03  1478   0.384E-02    0.201E+01
RMM:  57    -0.116244262830E+04   -0.21712E+00   -0.35542E-04  1120   0.175E-02    0.203E+01
RMM:  58    -0.116227967329E+04    0.16296E+00   -0.22203E-04  1082   0.115E-02    0.201E+01
RMM:  59    -0.116229497153E+04   -0.15298E-01   -0.11411E-04  1043   0.114E-02    0.201E+01
RMM:  60    -0.116210273613E+04    0.19224E+00   -0.38319E-04  1132   0.134E-02    0.197E+01
RMM:  61    -0.116137606858E+04    0.72667E+00   -0.16472E-02  1559   0.704E-02    0.111E+01
RMM:  62    -0.116148046128E+04   -0.10439E+00   -0.45923E-03  1349   0.774E-02    0.113E+01
RMM:  63    -0.116134059163E+04    0.13987E+00   -0.22597E-03  1404   0.396E-02    0.109E+01
RMM:  64    -0.116136209904E+04   -0.21507E-01   -0.20427E-04  1048   0.133E-02    0.109E+01
RMM:  65    -0.116153929909E+04   -0.17720E+00   -0.22985E-03  1343   0.300E-02    0.118E+01
RMM:  66    -0.116293203655E+04   -0.13927E+01   -0.21723E-02  1575   0.101E-01    0.206E+01
RMM:  67    -0.116302677312E+04   -0.94737E-01   -0.40888E-03  1368   0.751E-02    0.207E+01
RMM:  68    -0.116297588407E+04    0.50889E-01   -0.33976E-04  1086   0.190E-02    0.207E+01
RMM:  69    -0.116296187449E+04    0.14010E-01   -0.21632E-05  1018   0.763E-03    0.207E+01
RMM:  70    -0.116313090608E+04   -0.16903E+00   -0.46584E-04  1132   0.172E-02    0.207E+01
RMM:  71    -0.116378601016E+04   -0.65510E+00   -0.82469E+00  1589   0.160E+00    0.979E+00
RMM:  72    -0.116160162479E+04    0.21844E+01   -0.86404E-01  1585   0.597E-01    0.658E+00
RMM:  73    -0.116166376562E+04   -0.62141E-01   -0.17256E-02  1611   0.985E-02    0.657E+00
RMM:  74    -0.116156986355E+04    0.93902E-01   -0.87630E-03  1568   0.674E-02    0.665E+00
RMM:  75    -0.116205567284E+04   -0.48581E+00   -0.23554E-01  1591   0.300E-01    0.700E+00
RMM:  76    -0.116161196813E+04    0.44370E+00   -0.12444E-01  1585   0.188E-01    0.579E+00
RMM:  77    -0.116084702911E+04    0.76494E+00   -0.20006E-01  1584   0.218E-01    0.444E+00
RMM:  78    -0.116079520201E+04    0.51827E-01   -0.23871E-02  1485   0.589E-02    0.423E+00
RMM:  79    -0.116068891090E+04    0.10629E+00   -0.71869E-03  1435   0.481E-02    0.376E+00
RMM:  80    -0.116069199514E+04   -0.30842E-02   -0.84770E-04  1100   0.150E-02    0.375E+00
RMM:  81    -0.116073554355E+04   -0.43548E-01   -0.25632E-03  1138   0.265E-02    0.405E+00
RMM:  82    -0.116073332089E+04    0.22227E-02   -0.29212E-04  1031   0.987E-03    0.406E+00
RMM:  83    -0.116062450214E+04    0.10882E+00   -0.85028E-03  1431   0.467E-02    0.192E+00
RMM:  84    -0.116062751632E+04   -0.30142E-02   -0.10811E-03  1147   0.285E-02    0.194E+00
RMM:  85    -0.116062946878E+04   -0.19525E-02   -0.17379E-03  1260   0.287E-02    0.284E+00
RMM:  86    -0.116079026459E+04   -0.16080E+00   -0.65035E-03  1441   0.582E-02    0.935E+00
RMM:  87    -0.116066810378E+04    0.12216E+00   -0.27937E-03  1273   0.707E-02    0.937E+00
RMM:  88    -0.116050239915E+04    0.16570E+00   -0.30438E-03  1296   0.393E-02    0.664E+00
RMM:  89    -0.116073680225E+04   -0.23440E+00   -0.56996E-03  1311   0.549E-02    0.987E+00
RMM:  90    -0.116061419703E+04    0.12261E+00   -0.23080E-03  1224   0.415E-02    0.953E+00
RMM:  91    -0.116056346430E+04    0.50733E-01   -0.16678E-03  1429   0.316E-02    0.874E+00
RMM:  92    -0.116071447303E+04   -0.15101E+00   -0.53326E-03  1482   0.450E-02    0.948E+00
RMM:  93    -0.116075528778E+04   -0.40815E-01   -0.13073E-03  1198   0.270E-02    0.937E+00
RMM:  94    -0.116068161617E+04    0.73672E-01   -0.30265E-03  1564   0.513E-02    0.867E+00
RMM:  95    -0.116061546197E+04    0.66154E-01   -0.58581E-03  1534   0.526E-02    0.684E+00
RMM:  96    -0.116066250783E+04   -0.47046E-01   -0.51608E-03  1444   0.720E-02    0.662E+00
RMM:  97    -0.116065471554E+04    0.77923E-02   -0.13595E-03  1248   0.338E-02    0.568E+00
RMM:  98    -0.116067863974E+04   -0.23924E-01   -0.48566E-04  1050   0.192E-02    0.641E+00
RMM:  99    -0.116067300874E+04    0.56310E-02   -0.84994E-04  1169   0.193E-02    0.525E+00
RMM: 100    -0.116068849483E+04   -0.15486E-01   -0.38601E-04  1066   0.183E-02
   1 F= -.11678002E+04 E0= -.11677832E+04  d E =-.116780E+04  mag=    -0.1268
       N       E                     dE             d eps       ncg     rms          rms(c)
DAV:   1    -0.116074280541E+04   -0.69797E-01   -0.16316E+01  1728   0.545E+00    0.106E+01
RMM:   2    -0.116160748704E+04   -0.86468E+00   -0.16097E+00  1584   0.105E+00    0.773E+00
RMM:   3    -0.116086567484E+04    0.74181E+00   -0.18055E-01  1588   0.288E-01    0.532E+00
RMM:   4    -0.116117130183E+04   -0.30563E+00   -0.25808E-01  1621   0.219E-01    0.119E+01
RMM:   5    -0.116115223443E+04    0.19067E-01   -0.15543E-02  1429   0.102E-01    0.118E+01
RMM:   6    -0.116073659151E+04    0.41564E+00   -0.11351E-01  1584   0.159E-01    0.739E+00
RMM:   7    -0.116078374425E+04   -0.47153E-01   -0.25147E-02  1586   0.980E-02    0.680E+00
RMM:   8    -0.116094545734E+04   -0.16171E+00   -0.15050E-02  1587   0.967E-02    0.935E+00
RMM:   9    -0.116080278521E+04    0.14267E+00   -0.12606E-02  1585   0.868E-02    0.836E+00
RMM:  10    -0.116082450229E+04   -0.21717E-01   -0.50266E-02  1584   0.131E-01    0.737E+00
RMM:  11    -0.116076073849E+04    0.63764E-01   -0.99175E-03  1563   0.112E-01    0.422E+00
RMM:  12    -0.116076961811E+04   -0.88796E-02   -0.73977E-04  1114   0.307E-02    0.421E+00
RMM:  13    -0.116076939313E+04    0.22498E-03   -0.82998E-05   990   0.108E-02    0.427E+00
RMM:  14    -0.116076093010E+04    0.84630E-02   -0.26034E-04   973   0.836E-03    0.373E+00
RMM:  15    -0.116076274528E+04   -0.18152E-02   -0.14234E-03  1254   0.308E-02    0.375E+00
RMM:  16    -0.116073998055E+04    0.22765E-01   -0.80501E-04  1110   0.334E-02    0.382E+00
RMM:  17    -0.116073357670E+04    0.64038E-02   -0.42814E-04  1029   0.161E-02    0.354E+00
RMM:  18    -0.116073191859E+04    0.16581E-02   -0.20191E-03  1118   0.288E-02    0.352E+00
RMM:  19    -0.116074642467E+04   -0.14506E-01   -0.47311E-03  1396   0.556E-02    0.220E+00
RMM:  20    -0.116075849748E+04   -0.12073E-01   -0.20621E-03  1236   0.432E-02    0.179E+00
RMM:  21    -0.116074696869E+04    0.11529E-01   -0.79503E-04  1175   0.336E-02    0.170E+00
RMM:  22    -0.116074641446E+04    0.55422E-03   -0.50822E-03  1585   0.823E-02    0.123E+00
RMM:  23    -0.116076311945E+04   -0.16705E-01   -0.33513E-03  1579   0.678E-02    0.951E-01
RMM:  24    -0.116076669328E+04   -0.35738E-02   -0.17064E-03  1531   0.496E-02    0.778E-01
RMM:  25    -0.116076646265E+04    0.23063E-03   -0.91944E-04  1402   0.355E-02    0.464E-01
RMM:  26    -0.116076673076E+04   -0.26811E-03   -0.19693E-04  1073   0.172E-02    0.349E-01
RMM:  27    -0.116076954427E+04   -0.28135E-02   -0.29041E-04  1040   0.190E-02    0.582E-01
RMM:  28    -0.116076823613E+04    0.13081E-02   -0.18979E-04  1007   0.145E-02    0.383E-01
RMM:  29    -0.116076786196E+04    0.37418E-03   -0.48021E-05  1009   0.849E-03    0.325E-01
RMM:  30    -0.116076853413E+04   -0.67218E-03   -0.58590E-05  1010   0.971E-03    0.289E-01
RMM:  31    -0.116076924985E+04   -0.71572E-03   -0.69488E-05  1014   0.103E-02    0.216E-01
RMM:  32    -0.116076970934E+04   -0.45949E-03   -0.33512E-05   812   0.666E-03    0.197E-01
RMM:  33    -0.116076983495E+04   -0.12561E-03   -0.20226E-05   775   0.570E-03    0.138E-01
RMM:  34    -0.116076992398E+04   -0.89027E-04   -0.44466E-06   633   0.353E-03
   2 F= -.11678828E+04 E0= -.11678642E+04  d E =-.825969E-01  mag=    -1.6800
       N       E                     dE             d eps       ncg     rms          rms(c)
DAV:   1    -0.116090309562E+04   -0.13326E+00   -0.72472E+00  1728   0.370E+00    0.665E+00
RMM:   2    -0.116157358566E+04   -0.67049E+00   -0.57205E-01  1584   0.664E-01    0.111E+01
RMM:   3    -0.116088830961E+04    0.68528E+00   -0.11364E-01  1586   0.224E-01    0.838E+00
RMM:   4    -0.116084920385E+04    0.39106E-01   -0.75178E-02  1613   0.128E-01    0.617E+00
RMM:   5    -0.116083252423E+04    0.16680E-01   -0.13305E-02  1586   0.137E-01    0.240E+00
RMM:   6    -0.116082786296E+04    0.46613E-02   -0.24942E-03  1365   0.543E-02    0.315E+00
RMM:   7    -0.116084102416E+04   -0.13161E-01   -0.93449E-03  1588   0.862E-02    0.539E+00
RMM:   8    -0.116084741635E+04   -0.63922E-02   -0.19591E-03  1438   0.619E-02    0.615E+00
RMM:   9    -0.116083618292E+04    0.11233E-01   -0.66245E-04  1108   0.312E-02    0.687E+00
RMM:  10    -0.116079327820E+04    0.42905E-01   -0.93724E-03  1586   0.994E-02    0.213E+00
RMM:  11    -0.116082068410E+04   -0.27406E-01   -0.27528E-03  1535   0.591E-02    0.798E-01
RMM:  12    -0.116083437699E+04   -0.13693E-01   -0.16435E-03  1451   0.545E-02    0.113E+00
RMM:  13    -0.116083632352E+04   -0.19465E-02   -0.99089E-04  1358   0.370E-02    0.188E+00
RMM:  14    -0.116083175492E+04    0.45686E-02   -0.16648E-03  1527   0.533E-02    0.135E+00
RMM:  15    -0.116083447789E+04   -0.27230E-02   -0.50846E-04  1225   0.272E-02    0.123E+00
RMM:  16    -0.116083441483E+04    0.63068E-04   -0.16308E-04  1060   0.163E-02
   3 F= -.11679465E+04 E0= -.11679258E+04  d E =-.146273E+00  mag=    -1.4329
       N       E                     dE             d eps       ncg     rms          rms(c)
DAV:   1    -0.116083980936E+04   -0.53315E-02   -0.15168E-01  1764   0.530E-01    0.207E+00
RMM:   2    -0.116099838787E+04   -0.15858E+00   -0.45552E-02  1584   0.130E-01    0.955E+00
RMM:   3    -0.116079236996E+04    0.20602E+00   -0.21986E-02  1511   0.101E-01    0.132E+00
RMM:   4    -0.116082575876E+04   -0.33389E-01   -0.17154E-03  1173   0.486E-02    0.995E-01
RMM:   5    -0.116083002762E+04   -0.42689E-02   -0.39198E-04  1046   0.212E-02    0.890E-01
RMM:   6    -0.116083262116E+04   -0.25935E-02   -0.66003E-04  1161   0.251E-02    0.337E-01
RMM:   7    -0.116083793745E+04   -0.53163E-02   -0.30283E-04  1059   0.225E-02    0.258E-01
RMM:   8    -0.116083709440E+04    0.84305E-03   -0.66781E-05   933   0.104E-02    0.250E-01
RMM:   9    -0.116083781076E+04   -0.71636E-03   -0.10364E-03  1522   0.403E-02    0.395E-01
RMM:  10    -0.116083650717E+04    0.13036E-02   -0.32568E-04  1129   0.208E-02    0.544E-01
RMM:  11    -0.116083648127E+04    0.25901E-04   -0.61902E-05  1016   0.108E-02
   4 F= -.11679484E+04 E0= -.11679289E+04  d E =-.148232E+00  mag=    -1.5840
       N       E                     dE             d eps       ncg     rms          rms(c)
DAV:   1    -0.116083853440E+04   -0.20272E-02   -0.45353E+00  1584   0.235E+00    0.188E+00
RMM:   2    -0.116093607323E+04   -0.97539E-01   -0.10894E-01  1584   0.330E-01    0.713E+00
RMM:   3    -0.116081759620E+04    0.11848E+00   -0.16001E-02  1600   0.109E-01    0.769E-01
RMM:   4    -0.116084164003E+04   -0.24044E-01   -0.14479E-03  1254   0.510E-02    0.100E+00
RMM:   5    -0.116083654963E+04    0.50904E-02   -0.51567E-04  1092   0.249E-02    0.881E-01
RMM:   6    -0.116084060524E+04   -0.40556E-02   -0.26584E-04  1045   0.203E-02    0.872E-01
RMM:   7    -0.116083798477E+04    0.26205E-02   -0.15788E-03  1489   0.376E-02    0.645E-01
RMM:   8    -0.116084149389E+04   -0.35091E-02   -0.19600E-03  1580   0.509E-02    0.566E-01
RMM:   9    -0.116084180459E+04   -0.31070E-03   -0.71631E-04  1381   0.304E-02    0.319E-01
RMM:  10    -0.116084208761E+04   -0.28302E-03   -0.31741E-04  1094   0.232E-02    0.114E-01
RMM:  11    -0.116084222421E+04   -0.13660E-03   -0.70636E-05  1015   0.117E-02    0.115E-01
RMM:  12    -0.116084221334E+04    0.10873E-04   -0.78569E-05  1012   0.105E-02
   5 F= -.11679529E+04 E0= -.11679339E+04  d E =-.450922E-02  mag=    -1.6448
       N       E                     dE             d eps       ncg     rms          rms(c)
DAV:   1    -0.116084395664E+04   -0.17324E-02   -0.38360E-01  1728   0.686E-01    0.704E-01
RMM:   2    -0.116085723392E+04   -0.13277E-01   -0.10937E-02  1581   0.980E-02    0.324E+00
RMM:   3    -0.116083550385E+04    0.21730E-01   -0.24461E-03  1256   0.422E-02    0.286E-01
RMM:   4    -0.116084327021E+04   -0.77664E-02   -0.36040E-04  1051   0.249E-02    0.386E-01
RMM:   5    -0.116084224666E+04    0.10235E-02   -0.12266E-04  1000   0.135E-02    0.393E-01
RMM:   6    -0.116084329542E+04   -0.10488E-02   -0.57657E-05   862   0.926E-03    0.361E-01
RMM:   7    -0.116084322255E+04    0.72869E-04   -0.75236E-05   999   0.958E-03
   6 F= -.11679543E+04 E0= -.11679350E+04  d E =-.587069E-02  mag=    -1.6005
       N       E                     dE             d eps       ncg     rms          rms(c)
DAV:   1    -0.116083637019E+04    0.69252E-02   -0.14725E+00  1656   0.187E+00    0.529E-01
RMM:   2    -0.116084510423E+04   -0.87340E-02   -0.40601E-02  1589   0.302E-01    0.241E+00
RMM:   3    -0.116083581207E+04    0.92922E-02   -0.31148E-03  1571   0.662E-02    0.825E-01
RMM:   4    -0.116083456189E+04    0.12502E-02   -0.56976E-04  1160   0.339E-02    0.393E-01
RMM:   5    -0.116083819810E+04   -0.36362E-02   -0.28026E-04  1062   0.203E-02    0.330E-01
RMM:   6    -0.116083785095E+04    0.34715E-03   -0.10183E-02  1584   0.108E-01    0.677E-01
RMM:   7    -0.116083426220E+04    0.35887E-02   -0.81230E-04  1346   0.339E-02    0.673E-01
RMM:   8    -0.116083270282E+04    0.15594E-02   -0.12383E-04  1034   0.143E-02    0.190E-01
RMM:   9    -0.116083627994E+04   -0.35771E-02   -0.87220E-04  1357   0.314E-02    0.149E-01
RMM:  10    -0.116083720078E+04   -0.92084E-03   -0.16300E-04  1032   0.176E-02    0.629E-02
RMM:  11    -0.116083738740E+04   -0.18662E-03   -0.71762E-05  1017   0.106E-02    0.248E-02
RMM:  12    -0.116083738231E+04    0.50895E-05   -0.49026E-05  1000   0.821E-03
   7 F= -.11679484E+04 E0= -.11679291E+04  d E =0.585275E-02  mag=    -1.6166
       N       E                     dE             d eps       ncg     rms          rms(c)
DAV:   1    -0.116084497777E+04   -0.75904E-02   -0.64292E-01  1692   0.124E+00    0.252E-01
RMM:   2    -0.116084687148E+04   -0.18937E-02   -0.17970E-02  1587   0.200E-01    0.733E-01
RMM:   3    -0.116084492957E+04    0.19419E-02   -0.12128E-03  1388   0.428E-02    0.613E-01
RMM:   4    -0.116084328064E+04    0.16489E-02   -0.20970E-04  1073   0.188E-02    0.229E-01
RMM:   5    -0.116084600586E+04   -0.27252E-02   -0.15575E-04  1035   0.156E-02    0.213E-01
RMM:   6    -0.116084601009E+04   -0.42299E-05   -0.65349E-04  1358   0.285E-02
   8 F= -.11679571E+04 E0= -.11679379E+04  d E =-.278146E-02  mag=    -1.6254
       N       E                     dE             d eps       ncg     rms          rms(c)
DAV:   1    -0.116084351626E+04    0.24896E-02   -0.33195E-01  1764   0.869E-01    0.493E-01
RMM:   2    -0.116084796220E+04   -0.44459E-02   -0.85293E-03  1584   0.130E-01    0.171E+00
RMM:   3    -0.116083736760E+04    0.10595E-01   -0.10318E-03  1255   0.381E-02    0.175E+00
RMM:   4    -0.116083474979E+04    0.26178E-02   -0.82382E-04  1079   0.247E-02    0.331E-01
RMM:   5    -0.116084418011E+04   -0.94303E-02   -0.43382E-04  1042   0.242E-02    0.327E-01
RMM:   6    -0.116084442160E+04   -0.24149E-03   -0.82712E-05   988   0.125E-02    0.273E-01
RMM:   7    -0.116084395827E+04    0.46333E-03   -0.19764E-03  1582   0.526E-02    0.492E-01
RMM:   8    -0.116084204297E+04    0.19153E-02   -0.38704E-04  1100   0.263E-02    0.153E-01
RMM:   9    -0.116084417794E+04   -0.21350E-02   -0.21355E-04  1026   0.207E-02    0.830E-02
RMM:  10    -0.116084422047E+04   -0.42530E-04   -0.44959E-05  1003   0.986E-03
   9 F= -.11679549E+04 E0= -.11679358E+04  d E =0.215537E-02  mag=    -1.6354
       N       E                     dE             d eps       ncg     rms          rms(c)
DAV:   1    -0.116084617344E+04   -0.19955E-02   -0.19561E-01  1728   0.675E-01    0.187E-01
RMM:   2    -0.116084657239E+04   -0.39895E-03   -0.54168E-03  1584   0.106E-01    0.517E-01
RMM:   3    -0.116084367259E+04    0.28998E-02   -0.40926E-04  1139   0.273E-02    0.284E-01
RMM:   4    -0.116084576556E+04   -0.20930E-02   -0.14063E-04  1019   0.164E-02    0.163E-01
RMM:   5    -0.116084631330E+04   -0.54774E-03   -0.70507E-05  1013   0.117E-02    0.194E-01
RMM:   6    -0.116084601993E+04    0.29337E-03   -0.77619E-04  1549   0.323E-02    0.307E-01
RMM:   7    -0.116084489657E+04    0.11234E-02   -0.34068E-04  1111   0.233E-02    0.124E-01
RMM:   8    -0.116084547933E+04   -0.58277E-03   -0.57795E-05   998   0.112E-02    0.459E-02
RMM:   9    -0.116084596141E+04   -0.48207E-03   -0.13176E-04  1021   0.146E-02    0.197E-02
RMM:  10    -0.116084597184E+04   -0.10433E-04   -0.13804E-05   984   0.589E-03
  10 F= -.11679569E+04 E0= -.11679378E+04  d E =0.129334E-03  mag=    -1.6266
