       N       E                     dE             d eps       ncg     rms          rms(c)
DAV:   1     0.472706837362E+04    0.47271E+04   -0.18233E+05  1944   0.936E+02
DAV:   2    -0.911004333043E+02   -0.48182E+04   -0.44187E+04  2556   0.208E+02
DAV:   3    -0.119950321019E+04   -0.11084E+04   -0.11024E+04  2016   0.108E+02
DAV:   4    -0.124537694483E+04   -0.45874E+02   -0.45568E+02  2016   0.294E+01
DAV:   5    -0.124652988487E+04   -0.11529E+01   -0.11492E+01  2268   0.429E+00    0.682E+01
RMM:   6    -0.123340848541E+04    0.13121E+02   -0.40934E+01  1589   0.612E+00    0.589E+01
RMM:   7    -0.121872148328E+04    0.14687E+02   -0.61785E+00  1591   0.283E+00    0.448E+01
RMM:   8    -0.119630875601E+04    0.22413E+02   -0.21889E+01  1584   0.549E+00    0.312E+01
RMM:   9    -0.118022378162E+04    0.16085E+02   -0.25895E+01  1584   0.587E+00    0.213E+01
RMM:  10    -0.117982235501E+04    0.40143E+00   -0.23856E+01  1584   0.558E+00    0.105E+01
RMM:  11    -0.117954381380E+04    0.27854E+00   -0.20422E+00  1610   0.176E+00    0.668E+00
RMM:  12    -0.117896257229E+04    0.58124E+00   -0.10337E+00  1584   0.108E+00    0.495E+00
RMM:  13    -0.117865463313E+04    0.30794E+00   -0.10017E+00  1584   0.113E+00    0.121E+00
RMM:  14    -0.117861877924E+04    0.35854E-01   -0.62471E-02  1609   0.273E-01    0.867E-01
RMM:  15    -0.117861034902E+04    0.84302E-02   -0.20983E-02  1586   0.156E-01    0.424E-01
RMM:  16    -0.117861037831E+04   -0.29287E-04   -0.40960E-03  1618   0.774E-02    0.302E-01
RMM:  17    -0.117860989301E+04    0.48530E-03   -0.17335E-03  1500   0.478E-02    0.188E-01
RMM:  18    -0.117861008529E+04   -0.19227E-03   -0.41007E-04  1209   0.252E-02    0.110E-01
RMM:  19    -0.117861010324E+04   -0.17952E-04   -0.12778E-04  1045   0.151E-02
   1 F= -.11858290E+04 E0= -.11858290E+04  d E =-.118583E+04  mag=     0.0056
       N       E                     dE             d eps       ncg     rms          rms(c)
DAV:   1    -0.117860388235E+04    0.62029E-02   -0.19884E+00  1692   0.228E+00    0.513E-01
RMM:   2    -0.117861070606E+04   -0.68237E-02   -0.81500E-02  1589   0.368E-01    0.523E-01
RMM:   3    -0.117860909080E+04    0.16153E-02   -0.34301E-03  1822   0.717E-02    0.507E-01
RMM:   4    -0.117860827944E+04    0.81136E-03   -0.20894E-03  1576   0.528E-02    0.296E-01
RMM:   5    -0.117860854066E+04   -0.26122E-03   -0.31547E-03  1584   0.650E-02    0.929E-02
RMM:   6    -0.117860837038E+04    0.17028E-03   -0.68715E-05  1028   0.127E-02    0.800E-02
RMM:   7    -0.117860823463E+04    0.13575E-03   -0.10455E-03  1521   0.328E-02    0.325E-02
RMM:   8    -0.117860824168E+04   -0.70435E-05   -0.75325E-05   998   0.105E-02
   2 F= -.11858279E+04 E0= -.11858279E+04  d E =0.108866E-02  mag=    -0.0001
       N       E                     dE             d eps       ncg     rms          rms(c)
DAV:   1    -0.117861146046E+04   -0.32258E-02   -0.60430E-01  1656   0.126E+00    0.284E-01
RMM:   2    -0.117861325026E+04   -0.17898E-02   -0.22468E-02  1588   0.198E-01    0.300E-01
RMM:   3    -0.117861275631E+04    0.49394E-03   -0.83147E-04  1346   0.369E-02    0.296E-01
RMM:   4    -0.117861253590E+04    0.22042E-03   -0.27690E-04  1131   0.216E-02    0.223E-01
RMM:   5    -0.117861257981E+04   -0.43910E-04   -0.19360E-03  1578   0.506E-02    0.656E-02
RMM:   6    -0.117861251193E+04    0.67876E-04   -0.32794E-05   999   0.905E-03
   3 F= -.11858317E+04 E0= -.11858317E+04  d E =-.275546E-02  mag=    -0.0000
       N       E                     dE             d eps       ncg     rms          rms(c)
DAV:   1    -0.117861182321E+04    0.75660E-03   -0.93416E-01  1620   0.149E+00    0.365E-01
RMM:   2    -0.117861379032E+04   -0.19671E-02   -0.28634E-02  1592   0.223E-01    0.332E-01
RMM:   3    -0.117861298074E+04    0.80958E-03   -0.10272E-03  1424   0.428E-02    0.297E-01
RMM:   4    -0.117861238301E+04    0.59772E-03   -0.38788E-03  1584   0.699E-02    0.894E-02
RMM:   5    -0.117861240862E+04   -0.25604E-04   -0.23281E-04  1105   0.204E-02
   4 F= -.11858320E+04 E0= -.11858320E+04  d E =-.254551E-03  mag=     0.0000
       N       E                     dE             d eps       ncg     rms          rms(c)
DAV:   1    -0.117861364001E+04   -0.12570E-02   -0.22447E-01  1728   0.728E-01    0.169E-01
RMM:   2    -0.117861397456E+04   -0.33455E-03   -0.62517E-03  1592   0.105E-01    0.154E-01
RMM:   3    -0.117861371700E+04    0.25756E-03   -0.22487E-04  1108   0.210E-02    0.135E-01
RMM:   4    -0.117861348765E+04    0.22935E-03   -0.13198E-03  1584   0.402E-02    0.468E-02
RMM:   5    -0.117861348854E+04   -0.89119E-06   -0.61050E-05   992   0.110E-02
   5 F= -.11858329E+04 E0= -.11858329E+04  d E =-.115877E-02  mag=     0.0000
       N       E                     dE             d eps       ncg     rms          rms(c)
DAV:   1    -0.117861336741E+04    0.12024E-03   -0.41834E-01  1728   0.976E-01    0.189E-01
RMM:   2    -0.117861415223E+04   -0.78482E-03   -0.11354E-02  1588   0.139E-01    0.161E-01
RMM:   3    -0.117861379481E+04    0.35742E-03   -0.38646E-04  1218   0.276E-02    0.140E-01
RMM:   4    -0.117861362990E+04    0.16492E-03   -0.14545E-03  1574   0.426E-02    0.484E-02
RMM:   5    -0.117861361992E+04    0.99723E-05   -0.51378E-05  1008   0.104E-02
   6 F= -.11858334E+04 E0= -.11858334E+04  d E =-.478302E-03  mag=    -0.0000
       N       E                     dE             d eps       ncg     rms          rms(c)
DAV:   1    -0.117861394099E+04   -0.31109E-03   -0.54188E-02  1728   0.350E-01    0.663E-02
RMM:   2    -0.117861401627E+04   -0.75283E-04   -0.13529E-03  1394   0.478E-02    0.566E-02
RMM:   3    -0.117861395600E+04    0.60270E-04   -0.54534E-05   964   0.117E-02
   7 F= -.11858336E+04 E0= -.11858336E+04  d E =-.688976E-03  mag=     0.0000
