       N       E                     dE             d eps       ncg     rms          rms(c)
DAV:   1     0.513262985876E+04    0.51326E+04   -0.17350E+05  1732   0.992E+02
DAV:   2     0.729843884092E+02   -0.50596E+04   -0.46153E+04  2336   0.227E+02
DAV:   3    -0.117854830601E+04   -0.12515E+04   -0.12423E+04  1912   0.121E+02
DAV:   4    -0.123763627233E+04   -0.59088E+02   -0.58484E+02  1872   0.342E+01
DAV:   5    -0.123911622689E+04   -0.14800E+01   -0.14723E+01  2040   0.495E+00    0.645E+01
RMM:   6    -0.122288533643E+04    0.16231E+02   -0.16318E+01  1476   0.437E+00    0.507E+01
RMM:   7    -0.119942823314E+04    0.23457E+02   -0.23027E+01  1476   0.622E+00    0.361E+01
RMM:   8    -0.117572556902E+04    0.23703E+02   -0.39056E+01  1495   0.831E+00    0.233E+01
RMM:   9    -0.117273515053E+04    0.29904E+01   -0.28491E+01  1481   0.734E+00    0.110E+01
RMM:  10    -0.117370056582E+04   -0.96542E+00   -0.38505E+00  1494   0.319E+00    0.844E+00
RMM:  11    -0.117307391612E+04    0.62665E+00   -0.12522E+00  1476   0.152E+00    0.371E+00
RMM:  12    -0.117287036512E+04    0.20355E+00   -0.51692E-01  1477   0.101E+00    0.192E+00
RMM:  13    -0.117284070445E+04    0.29661E-01   -0.20661E-01  1477   0.651E-01    0.703E-01
RMM:  14    -0.117283938389E+04    0.13206E-02   -0.28222E-02  1498   0.270E-01    0.398E-01
RMM:  15    -0.117283871101E+04    0.67288E-03   -0.21604E-02  1466   0.188E-01    0.269E-01
RMM:  16    -0.117283979134E+04   -0.10803E-02   -0.48239E-03  1210   0.103E-01    0.208E-01
RMM:  17    -0.117283991807E+04   -0.12673E-03   -0.45590E-03  1151   0.873E-02
   1 F= -.11802613E+04 E0= -.11802566E+04  d E =-.118026E+04  mag=     0.1429
       N       E                     dE             d eps       ncg     rms          rms(c)
DAV:   1    -0.117284040591E+04   -0.61457E-03   -0.14238E-02  1542   0.211E-01    0.849E-02
RMM:   2    -0.117284040815E+04   -0.22384E-05   -0.44099E-04   908   0.366E-02
   2 F= -.11802617E+04 E0= -.11802570E+04  d E =-.470494E-03  mag=     0.1371
