       N       E                     dE             d eps       ncg     rms          rms(c)
DAV:   1     0.502250585571E+04    0.50225E+04   -0.17493E+05  1836   0.929E+02
DAV:   2    -0.302136067835E+02   -0.50527E+04   -0.46316E+04  2592   0.213E+02
DAV:   3    -0.118369217332E+04   -0.11535E+04   -0.11481E+04  2052   0.111E+02
DAV:   4    -0.123068366205E+04   -0.46991E+02   -0.46736E+02  2016   0.301E+01
DAV:   5    -0.123187223109E+04   -0.11886E+01   -0.11854E+01  2304   0.442E+00    0.606E+01
RMM:   6    -0.122006683521E+04    0.11805E+02   -0.69921E+00  1584   0.316E+00    0.499E+01
RMM:   7    -0.118249093062E+04    0.37576E+02   -0.55175E+01  1584   0.868E+00    0.331E+01
RMM:   8    -0.117632590641E+04    0.61650E+01   -0.63543E+00  1586   0.299E+00    0.266E+01
RMM:   9    -0.116955849339E+04    0.67674E+01   -0.21265E+01  1584   0.530E+00    0.139E+01
RMM:  10    -0.117060416888E+04   -0.10457E+01   -0.96455E+00  1584   0.362E+00    0.801E+00
RMM:  11    -0.116957441343E+04    0.10298E+01   -0.27554E+00  1584   0.185E+00    0.444E+00
RMM:  12    -0.116947280597E+04    0.10161E+00   -0.38818E-01  1598   0.562E-01    0.209E+00
RMM:  13    -0.116945457764E+04    0.18228E-01   -0.38062E-02  1587   0.225E-01    0.164E+00
RMM:  14    -0.116941498381E+04    0.39594E-01   -0.73722E-02  1584   0.255E-01    0.450E-01
RMM:  15    -0.116941754828E+04   -0.25645E-02   -0.63098E-03  1591   0.938E-02    0.399E-01
RMM:  16    -0.116941680915E+04    0.73912E-03   -0.20361E-03  1476   0.427E-02    0.228E-01
RMM:  17    -0.116941707319E+04   -0.26403E-03   -0.19555E-03  1558   0.435E-02    0.135E-01
RMM:  18    -0.116941720366E+04   -0.13047E-03   -0.10594E-03  1585   0.386E-02    0.803E-02
RMM:  19    -0.116941718030E+04    0.23357E-04   -0.13731E-04  1031   0.149E-02
   1 F= -.11766081E+04 E0= -.11766081E+04  d E =-.117661E+04  mag=    -0.0023
       N       E                     dE             d eps       ncg     rms          rms(c)
DAV:   1    -0.116941671172E+04    0.49194E-03   -0.38011E-01  1728   0.965E-01    0.171E-01
RMM:   2    -0.116941728324E+04   -0.57153E-03   -0.98941E-03  1584   0.133E-01    0.150E-01
RMM:   3    -0.116941708277E+04    0.20047E-03   -0.45258E-04  1250   0.286E-02    0.129E-01
RMM:   4    -0.116941694675E+04    0.13602E-03   -0.15335E-03  1573   0.442E-02    0.520E-02
RMM:   5    -0.116941692922E+04    0.17536E-04   -0.46061E-05  1002   0.101E-02
   2 F= -.11766080E+04 E0= -.11766080E+04  d E =0.142433E-03  mag=    -0.0004
       N       E                     dE             d eps       ncg     rms          rms(c)
DAV:   1    -0.116941794799E+04   -0.10012E-02   -0.10314E-01  1692   0.501E-01    0.860E-02
RMM:   2    -0.116941805052E+04   -0.10253E-03   -0.22838E-03  1584   0.661E-02    0.740E-02
RMM:   3    -0.116941797492E+04    0.75600E-04   -0.85211E-05  1022   0.134E-02
   3 F= -.11766090E+04 E0= -.11766090E+04  d E =-.846529E-03  mag=     0.0002
