       N       E                     dE             d eps       ncg     rms          rms(c)
DAV:   1     0.481706261156E+04    0.48171E+04   -0.17099E+05  1872   0.901E+02
DAV:   2    -0.742269887018E+02   -0.48913E+04   -0.44432E+04  2520   0.207E+02
DAV:   3    -0.118567852990E+04   -0.11115E+04   -0.11067E+04  2088   0.109E+02
DAV:   4    -0.123248741331E+04   -0.46809E+02   -0.46484E+02  2088   0.306E+01
DAV:   5    -0.123384495021E+04   -0.13575E+01   -0.13547E+01  2304   0.478E+00    0.699E+01
RMM:   6    -0.121817274506E+04    0.15672E+02   -0.13847E+01  1616   0.412E+00    0.538E+01
RMM:   7    -0.119479139657E+04    0.23381E+02   -0.59208E+01  1610   0.843E+00    0.399E+01
RMM:   8    -0.118751096244E+04    0.72804E+01   -0.39521E+00  1614   0.285E+00    0.314E+01
RMM:   9    -0.117258728313E+04    0.14924E+02   -0.18980E+01  1584   0.497E+00    0.218E+01
RMM:  10    -0.116975252507E+04    0.28348E+01   -0.30207E+01  1584   0.634E+00    0.112E+01
RMM:  11    -0.116998037287E+04   -0.22785E+00   -0.13415E+00  1623   0.227E+00    0.863E+00
RMM:  12    -0.116922736746E+04    0.75301E+00   -0.68983E-01  1596   0.975E-01    0.505E+00
RMM:  13    -0.116911802226E+04    0.10935E+00   -0.16946E-01  1614   0.525E-01    0.433E+00
RMM:  14    -0.116904879925E+04    0.69223E-01   -0.22464E-01  1584   0.589E-01    0.447E+00
RMM:  15    -0.116900232435E+04    0.46475E-01   -0.69038E-02  1695   0.354E-01    0.316E+00
RMM:  16    -0.116888920169E+04    0.11312E+00   -0.11718E-01  1588   0.406E-01    0.183E+00
RMM:  17    -0.116892014596E+04   -0.30944E-01   -0.12479E-01  1584   0.423E-01    0.128E+00
RMM:  18    -0.116893980968E+04   -0.19664E-01   -0.19543E-02  1584   0.227E-01    0.195E+00
RMM:  19    -0.116894343886E+04   -0.36292E-02   -0.30035E-03  1521   0.131E-01    0.210E+00
RMM:  20    -0.116893640645E+04    0.70324E-02   -0.30638E-03  1547   0.670E-02    0.140E+00
RMM:  21    -0.116893212390E+04    0.42826E-02   -0.72975E-03  1595   0.107E-01    0.480E-01
RMM:  22    -0.116893236041E+04   -0.23651E-03   -0.85980E-04  1324   0.458E-02    0.317E-01
RMM:  23    -0.116893267199E+04   -0.31158E-03   -0.50498E-04  1191   0.324E-02    0.131E-01
RMM:  24    -0.116893272758E+04   -0.55598E-04   -0.35328E-04  1181   0.262E-02
   1 F= -.11759485E+04 E0= -.11759484E+04  d E =-.117595E+04  mag=    -0.9967
       N       E                     dE             d eps       ncg     rms          rms(c)
DAV:   1    -0.116893136842E+04    0.13036E-02   -0.36097E-01  1764   0.103E+00    0.245E-01
RMM:   2    -0.116893231973E+04   -0.95131E-03   -0.13889E-02  1601   0.168E-01    0.202E-01
RMM:   3    -0.116893211192E+04    0.20782E-03   -0.86939E-04  1510   0.570E-02    0.182E-01
RMM:   4    -0.116893191937E+04    0.19255E-03   -0.15434E-04  1077   0.192E-02    0.165E-01
RMM:   5    -0.116893127097E+04    0.64840E-03   -0.21997E-03  1584   0.521E-02    0.746E-02
RMM:   6    -0.116893125697E+04    0.13993E-04   -0.13170E-04  1051   0.239E-02
   2 F= -.11759472E+04 E0= -.11759471E+04  d E =0.131108E-02  mag=    -0.9987
       N       E                     dE             d eps       ncg     rms          rms(c)
DAV:   1    -0.116893349875E+04   -0.22278E-02   -0.15121E-01  1692   0.664E-01    0.139E-01
RMM:   2    -0.116893371363E+04   -0.21488E-03   -0.42444E-03  1584   0.101E-01    0.114E-01
RMM:   3    -0.116893359044E+04    0.12319E-03   -0.20221E-04  1138   0.295E-02    0.111E-01
RMM:   4    -0.116893348169E+04    0.10875E-03   -0.89547E-05   990   0.157E-02    0.928E-02
RMM:   5    -0.116893324409E+04    0.23759E-03   -0.94270E-04  1547   0.347E-02    0.454E-02
RMM:   6    -0.116893324200E+04    0.20908E-05   -0.40699E-05  1002   0.166E-02
   3 F= -.11759491E+04 E0= -.11759490E+04  d E =-.569886E-03  mag=    -0.9988
