       N       E                     dE             d eps       ncg     rms          rms(c)
DAV:   1     0.493911777608E+04    0.49391E+04   -0.17041E+05  1800   0.911E+02
DAV:   2    -0.501010743943E+02   -0.49892E+04   -0.45500E+04  2520   0.209E+02
DAV:   3    -0.119007213109E+04   -0.11400E+04   -0.11346E+04  2124   0.110E+02
DAV:   4    -0.123621643882E+04   -0.46144E+02   -0.45927E+02  2016   0.291E+01
DAV:   5    -0.123742386352E+04   -0.12074E+01   -0.12051E+01  2340   0.441E+00    0.654E+01
RMM:   6    -0.121913110421E+04    0.18293E+02   -0.22721E+01  1584   0.461E+00    0.522E+01
RMM:   7    -0.120076430479E+04    0.18367E+02   -0.12304E+01  1584   0.392E+00    0.399E+01
RMM:   8    -0.117555782578E+04    0.25206E+02   -0.34656E+01  1584   0.669E+00    0.270E+01
RMM:   9    -0.117057182375E+04    0.49860E+01   -0.10925E+01  1584   0.372E+00    0.213E+01
RMM:  10    -0.116808980091E+04    0.24820E+01   -0.99768E+00  1584   0.360E+00    0.147E+01
RMM:  11    -0.116855243679E+04   -0.46264E+00   -0.47107E+00  1591   0.242E+00    0.710E+00
RMM:  12    -0.116791345803E+04    0.63898E+00   -0.70413E-01  1584   0.948E-01    0.337E+00
RMM:  13    -0.116775004388E+04    0.16341E+00   -0.54024E-01  1584   0.811E-01    0.151E+00
RMM:  14    -0.116772315413E+04    0.26890E-01   -0.11428E-01  1586   0.358E-01    0.669E-01
RMM:  15    -0.116772971838E+04   -0.65643E-02   -0.32651E-02  1584   0.200E-01    0.952E-01
RMM:  16    -0.116772260678E+04    0.71116E-02   -0.16078E-02  1589   0.106E-01    0.596E-01
RMM:  17    -0.116772188997E+04    0.71682E-03   -0.79442E-04  1269   0.308E-02    0.372E-01
RMM:  18    -0.116772202991E+04   -0.13994E-03   -0.13903E-03  1328   0.317E-02    0.293E-01
RMM:  19    -0.116772212023E+04   -0.90318E-04   -0.33902E-04  1106   0.223E-02
   1 F= -.11750645E+04 E0= -.11750644E+04  d E =-.117506E+04  mag=    -0.0179
       N       E                     dE             d eps       ncg     rms          rms(c)
DAV:   1    -0.116772027842E+04    0.17515E-02   -0.15840E+00  1620   0.173E+00    0.498E-01
RMM:   2    -0.116772237027E+04   -0.20919E-02   -0.37305E-02  1584   0.250E-01    0.454E-01
RMM:   3    -0.116772179701E+04    0.57326E-03   -0.23234E-03  1620   0.546E-02    0.383E-01
RMM:   4    -0.116772053068E+04    0.12663E-02   -0.13644E-03  1584   0.423E-02    0.289E-01
RMM:   5    -0.116771991633E+04    0.61435E-03   -0.45176E-03  1584   0.735E-02    0.151E-01
RMM:   6    -0.116772011341E+04   -0.19708E-03   -0.86449E-04  1446   0.306E-02    0.109E-01
RMM:   7    -0.116772033639E+04   -0.22298E-03   -0.36959E-04  1099   0.198E-02    0.103E-01
RMM:   8    -0.116772051411E+04   -0.17772E-03   -0.28697E-04  1062   0.173E-02    0.983E-02
RMM:   9    -0.116772059699E+04   -0.82879E-04   -0.13119E-03  1284   0.336E-02    0.626E-02
RMM:  10    -0.116772076024E+04   -0.16326E-03   -0.72618E-04  1147   0.250E-02    0.478E-02
RMM:  11    -0.116772096124E+04   -0.20100E-03   -0.11570E-04  1042   0.128E-02    0.406E-02
RMM:  12    -0.116772095467E+04    0.65722E-05   -0.97105E-05  1033   0.112E-02
   2 F= -.11750648E+04 E0= -.11750648E+04  d E =-.319253E-03  mag=    -0.0008
       N       E                     dE             d eps       ncg     rms          rms(c)
DAV:   1    -0.116772587166E+04   -0.49104E-02   -0.32764E-01  1656   0.789E-01    0.211E-01
RMM:   2    -0.116772626104E+04   -0.38938E-03   -0.66109E-03  1584   0.110E-01    0.197E-01
RMM:   3    -0.116772613111E+04    0.12993E-03   -0.35226E-04  1164   0.228E-02    0.170E-01
RMM:   4    -0.116772581174E+04    0.31937E-03   -0.47071E-04  1398   0.253E-02    0.117E-01
RMM:   5    -0.116772570970E+04    0.10204E-03   -0.74643E-04  1552   0.305E-02    0.464E-02
RMM:   6    -0.116772569630E+04    0.13404E-04   -0.59242E-05   994   0.968E-03
   3 F= -.11750689E+04 E0= -.11750688E+04  d E =-.438401E-02  mag=    -0.0013
       N       E                     dE             d eps       ncg     rms          rms(c)
DAV:   1    -0.116772258600E+04    0.31237E-02   -0.12887E+00  1656   0.167E+00    0.443E-01
RMM:   2    -0.116772391520E+04   -0.13292E-02   -0.32756E-02  1588   0.248E-01    0.377E-01
RMM:   3    -0.116772345285E+04    0.46235E-03   -0.14367E-03  1474   0.479E-02    0.279E-01
RMM:   4    -0.116772274510E+04    0.70775E-03   -0.87716E-04  1504   0.330E-02    0.224E-01
RMM:   5    -0.116772222456E+04    0.52054E-03   -0.24633E-03  1574   0.519E-02    0.113E-01
RMM:   6    -0.116772217478E+04    0.49784E-04   -0.51419E-04  1324   0.270E-02
   4 F= -.11750641E+04 E0= -.11750640E+04  d E =0.475899E-02  mag=    -0.0022
       N       E                     dE             d eps       ncg     rms          rms(c)
DAV:   1    -0.116772838237E+04   -0.61578E-02   -0.56210E-01  1728   0.110E+00    0.299E-01
RMM:   2    -0.116772884542E+04   -0.46305E-03   -0.13553E-02  1588   0.162E-01    0.248E-01
RMM:   3    -0.116772858978E+04    0.25565E-03   -0.59072E-04  1273   0.315E-02    0.183E-01
RMM:   4    -0.116772814053E+04    0.44925E-03   -0.71837E-04  1461   0.297E-02    0.125E-01
RMM:   5    -0.116772794757E+04    0.19296E-03   -0.84033E-04  1513   0.312E-02    0.717E-02
RMM:   6    -0.116772791297E+04    0.34598E-04   -0.16227E-04  1043   0.160E-02
   5 F= -.11750707E+04 E0= -.11750706E+04  d E =-.179185E-02  mag=    -0.0017
