       N       E                     dE             d eps       ncg     rms          rms(c)
DAV:   1     0.455485491296E+04    0.45549E+04   -0.17708E+05  1920   0.935E+02
DAV:   2    -0.910054668651E+02   -0.46459E+04   -0.42173E+04  2432   0.208E+02
DAV:   3    -0.118667679688E+04   -0.10957E+04   -0.10897E+04  2016   0.109E+02
DAV:   4    -0.123170136583E+04   -0.45025E+02   -0.44744E+02  1984   0.293E+01
DAV:   5    -0.123288006833E+04   -0.11787E+01   -0.11759E+01  2400   0.444E+00    0.717E+01
RMM:   6    -0.121404822967E+04    0.18832E+02   -0.22658E+01  1586   0.552E+00    0.515E+01
RMM:   7    -0.120194963328E+04    0.12099E+02   -0.85047E+00  1536   0.411E+00    0.428E+01
RMM:   8    -0.117520006689E+04    0.26750E+02   -0.35733E+01  1578   0.768E+00    0.268E+01
RMM:   9    -0.116557812005E+04    0.96219E+01   -0.22076E+01  1537   0.631E+00    0.192E+01
RMM:  10    -0.116591899036E+04   -0.34087E+00   -0.15363E+01  1548   0.524E+00    0.833E+00
RMM:  11    -0.116602175741E+04   -0.10277E+00   -0.18091E+00  1589   0.228E+00    0.675E+00
RMM:  12    -0.116562274295E+04    0.39901E+00   -0.10622E+00  1541   0.146E+00    0.260E+00
RMM:  13    -0.116546215026E+04    0.16059E+00   -0.40484E-01  1551   0.887E-01    0.146E+00
RMM:  14    -0.116545899495E+04    0.31553E-02   -0.63838E-02  1583   0.405E-01    0.842E-01
RMM:  15    -0.116545527625E+04    0.37187E-02   -0.47176E-02  1593   0.294E-01    0.443E-01
RMM:  16    -0.116545586495E+04   -0.58870E-03   -0.99598E-03  1682   0.152E-01    0.254E-01
RMM:  17    -0.116545526965E+04    0.59530E-03   -0.22463E-03  1714   0.689E-02    0.206E-01
RMM:  18    -0.116545525691E+04    0.12739E-04   -0.11054E-03  1648   0.386E-02    0.190E-01
RMM:  19    -0.116545551824E+04   -0.26133E-03   -0.11088E-03  1551   0.473E-02    0.931E-02
RMM:  20    -0.116545550405E+04    0.14190E-04   -0.15826E-04  1561   0.203E-02    0.842E-02
RMM:  21    -0.116545555858E+04   -0.54521E-04   -0.17424E-04  1559   0.180E-02    0.565E-02
RMM:  22    -0.116545557043E+04   -0.11858E-04   -0.37710E-05  1579   0.920E-03    0.233E-02
RMM:  23    -0.116545556200E+04    0.84295E-05   -0.41270E-05  1547   0.843E-03    0.185E-02
RMM:  24    -0.116545556145E+04    0.55655E-06   -0.13716E-05  1537   0.511E-03    0.907E-03
RMM:  25    -0.116545556229E+04   -0.84175E-06   -0.56510E-06  1279   0.307E-03
   1 F= -.11654556E+04 E0= -.11654556E+04  d E =-.116546E+04  mag=     4.0004
       N       E                     dE             d eps       ncg     rms          rms(c)
DAV:   1    -0.116537140078E+04    0.84161E-01   -0.22522E+01  1824   0.676E+00    0.131E+00
RMM:   2    -0.116541431318E+04   -0.42912E-01   -0.49103E-01  1553   0.109E+00    0.165E+00
RMM:   3    -0.116543038668E+04   -0.16074E-01   -0.12685E-01  1754   0.450E-01    0.160E+00
RMM:   4    -0.116543328780E+04   -0.29011E-02   -0.23883E-02  1936   0.185E-01    0.171E+00
RMM:   5    -0.116542762249E+04    0.56653E-02   -0.37766E-03  1552   0.889E-02    0.133E+00
RMM:   6    -0.116541443309E+04    0.13189E-01   -0.28131E-02  1550   0.214E-01    0.746E-01
RMM:   7    -0.116541217459E+04    0.22585E-02   -0.10407E-02  1600   0.123E-01    0.502E-01
RMM:   8    -0.116541190552E+04    0.26906E-03   -0.18997E-03  1835   0.559E-02    0.456E-01
RMM:   9    -0.116541151443E+04    0.39110E-03   -0.32649E-04  1606   0.239E-02    0.389E-01
RMM:  10    -0.116541066325E+04    0.85118E-03   -0.17607E-03  1615   0.483E-02    0.222E-01
RMM:  11    -0.116541060652E+04    0.56730E-04   -0.57086E-04  1622   0.286E-02    0.180E-01
RMM:  12    -0.116541061010E+04   -0.35821E-05   -0.25154E-04  1766   0.197E-02    0.122E-01
RMM:  13    -0.116541065084E+04   -0.40736E-04   -0.20502E-04  1653   0.168E-02    0.765E-02
RMM:  14    -0.116541063689E+04    0.13948E-04   -0.34512E-05  1621   0.839E-03    0.567E-02
RMM:  15    -0.116541060228E+04    0.34608E-04   -0.61425E-05  1578   0.890E-03    0.224E-02
RMM:  16    -0.116541060239E+04   -0.10751E-06   -0.13481E-05  1458   0.458E-03    0.256E-02
RMM:  17    -0.116541059830E+04    0.40911E-05   -0.13089E-05  1492   0.426E-03    0.142E-02
RMM:  18    -0.116541059803E+04    0.26586E-06   -0.18368E-06  1077   0.219E-03
   2 F= -.11654106E+04 E0= -.11654106E+04  d E =0.449643E-01  mag=     4.0000
       N       E                     dE             d eps       ncg     rms          rms(c)
DAV:   1    -0.116546293790E+04   -0.52340E-01   -0.93229E+00  1824   0.437E+00    0.837E-01
RMM:   2    -0.116547797531E+04   -0.15037E-01   -0.18092E-01  1543   0.695E-01    0.103E+00
RMM:   3    -0.116548343351E+04   -0.54582E-02   -0.41750E-02  1724   0.280E-01    0.101E+00
RMM:   4    -0.116548450393E+04   -0.10704E-02   -0.70002E-03  1890   0.112E-01    0.108E+00
RMM:   5    -0.116548078674E+04    0.37172E-02   -0.28990E-03  1542   0.736E-02    0.800E-01
RMM:   6    -0.116547627801E+04    0.45087E-02   -0.17459E-02  1722   0.151E-01    0.488E-01
RMM:   7    -0.116547612466E+04    0.15336E-03   -0.91827E-04  1584   0.530E-02    0.411E-01
RMM:   8    -0.116547535082E+04    0.77383E-03   -0.20263E-03  1589   0.555E-02    0.379E-01
RMM:   9    -0.116547525598E+04    0.94840E-04   -0.46130E-04  1702   0.305E-02    0.270E-01
RMM:  10    -0.116547521064E+04    0.45347E-04   -0.17962E-04  1675   0.166E-02    0.223E-01
RMM:  11    -0.116547519822E+04    0.12415E-04   -0.77417E-05  1659   0.107E-02    0.157E-01
RMM:  12    -0.116547520245E+04   -0.42306E-05   -0.19094E-04  1666   0.160E-02    0.790E-02
RMM:  13    -0.116547520206E+04    0.39443E-06   -0.29102E-05  1516   0.716E-03    0.732E-02
RMM:  14    -0.116547521163E+04   -0.95670E-05   -0.34648E-05  1604   0.700E-03    0.297E-02
RMM:  15    -0.116547520171E+04    0.99179E-05   -0.14662E-05  1478   0.466E-03    0.177E-02
RMM:  16    -0.116547519989E+04    0.18179E-05   -0.18575E-05  1514   0.455E-03    0.856E-03
RMM:  17    -0.116547519985E+04    0.39763E-07   -0.18049E-06  1084   0.213E-03
   3 F= -.11654752E+04 E0= -.11654752E+04  d E =-.196376E-01  mag=     4.0000
       N       E                     dE             d eps       ncg     rms          rms(c)
DAV:   1    -0.116547426045E+04    0.93944E-03   -0.30524E+00  1632   0.275E+00    0.514E-01
RMM:   2    -0.116547877448E+04   -0.45140E-02   -0.54916E-02  1548   0.401E-01    0.554E-01
RMM:   3    -0.116548015995E+04   -0.13855E-02   -0.14384E-02  1660   0.169E-01    0.484E-01
RMM:   4    -0.116547999838E+04    0.16156E-03   -0.21870E-03  1762   0.712E-02    0.483E-01
RMM:   5    -0.116547963608E+04    0.36230E-03   -0.12730E-03  1582   0.420E-02    0.458E-01
RMM:   6    -0.116548007434E+04   -0.43826E-03   -0.68908E-03  1799   0.865E-02    0.462E-01
RMM:   7    -0.116547917542E+04    0.89892E-03   -0.99165E-04  1553   0.439E-02    0.382E-01
RMM:   8    -0.116547885402E+04    0.32140E-03   -0.81868E-04  1598   0.339E-02    0.296E-01
RMM:   9    -0.116547856047E+04    0.29355E-03   -0.64750E-04  1623   0.276E-02    0.215E-01
RMM:  10    -0.116547847703E+04    0.83446E-04   -0.37451E-04  1646   0.226E-02    0.122E-01
RMM:  11    -0.116547848264E+04   -0.56165E-05   -0.40019E-05  1697   0.988E-03    0.109E-01
RMM:  12    -0.116547846566E+04    0.16978E-04   -0.25110E-05  1537   0.617E-03    0.838E-02
RMM:  13    -0.116547844651E+04    0.19157E-04   -0.49347E-05  1596   0.730E-03    0.430E-02
RMM:  14    -0.116547844393E+04    0.25744E-05   -0.13385E-05  1554   0.448E-03    0.279E-02
RMM:  15    -0.116547844349E+04    0.44751E-06   -0.27045E-06  1141   0.220E-03
   4 F= -.11654784E+04 E0= -.11654784E+04  d E =-.324364E-02  mag=     4.0000
       N       E                     dE             d eps       ncg     rms          rms(c)
DAV:   1    -0.116548069457E+04   -0.22506E-02   -0.51213E-01  1632   0.112E+00    0.207E-01
RMM:   2    -0.116548145032E+04   -0.75576E-03   -0.92007E-03  1548   0.164E-01    0.219E-01
RMM:   3    -0.116548167559E+04   -0.22527E-03   -0.24245E-03  1659   0.690E-02    0.190E-01
RMM:   4    -0.116548164419E+04    0.31397E-04   -0.34925E-04  1784   0.287E-02    0.187E-01
RMM:   5    -0.116548155791E+04    0.86283E-04   -0.26209E-04  1571   0.188E-02    0.169E-01
RMM:   6    -0.116548159909E+04   -0.41177E-04   -0.99675E-04  1757   0.338E-02    0.162E-01
RMM:   7    -0.116548146290E+04    0.13619E-03   -0.16566E-04  1559   0.175E-02    0.126E-01
RMM:   8    -0.116548144220E+04    0.20704E-04   -0.97481E-05  1617   0.119E-02    0.968E-02
RMM:   9    -0.116548140690E+04    0.35295E-04   -0.10084E-04  1633   0.107E-02    0.648E-02
RMM:  10    -0.116548140417E+04    0.27280E-05   -0.32259E-05  1641   0.707E-03    0.366E-02
RMM:  11    -0.116548140312E+04    0.10469E-05   -0.72179E-06  1439   0.352E-03    0.276E-02
RMM:  12    -0.116548140226E+04    0.86729E-06   -0.19103E-06  1063   0.188E-03
   5 F= -.11654814E+04 E0= -.11654814E+04  d E =-.620241E-02  mag=     4.0000
       N       E                     dE             d eps       ncg     rms          rms(c)
DAV:   1    -0.116548257898E+04   -0.11759E-02   -0.10827E+00  1696   0.178E+00    0.262E-01
RMM:   2    -0.116548394096E+04   -0.13620E-02   -0.18181E-02  1539   0.244E-01    0.259E-01
RMM:   3    -0.116548413838E+04   -0.19743E-03   -0.40313E-03  1646   0.101E-01    0.233E-01
RMM:   4    -0.116548375967E+04    0.37872E-03   -0.74286E-04  1674   0.441E-02    0.201E-01
RMM:   5    -0.116548327681E+04    0.48286E-03   -0.21566E-03  1599   0.541E-02    0.104E-01
RMM:   6    -0.116548323725E+04    0.39558E-04   -0.59423E-04  1571   0.336E-02    0.732E-02
RMM:   7    -0.116548315846E+04    0.78799E-04   -0.12319E-04  1618   0.158E-02    0.520E-02
RMM:   8    -0.116548314625E+04    0.12201E-04   -0.11380E-04  1600   0.120E-02    0.297E-02
RMM:   9    -0.116548314364E+04    0.26110E-05   -0.30653E-05  1672   0.723E-03    0.224E-02
RMM:  10    -0.116548314165E+04    0.19949E-05   -0.15258E-05  1560   0.506E-03    0.135E-02
RMM:  11    -0.116548314129E+04    0.35384E-06   -0.27678E-06  1107   0.257E-03
   6 F= -.11654831E+04 E0= -.11654831E+04  d E =-.173904E-02  mag=     4.0000
       N       E                     dE             d eps       ncg     rms          rms(c)
DAV:   1    -0.116548388079E+04   -0.73914E-03   -0.14418E-01  1696   0.649E-01    0.971E-02
RMM:   2    -0.116548405836E+04   -0.17757E-03   -0.24320E-03  1539   0.893E-02    0.946E-02
RMM:   3    -0.116548408073E+04   -0.22364E-04   -0.53111E-04  1643   0.367E-02    0.848E-02
RMM:   4    -0.116548402570E+04    0.55023E-04   -0.10439E-04  1660   0.164E-02    0.715E-02
RMM:   5    -0.116548396494E+04    0.60761E-04   -0.28378E-04  1592   0.197E-02    0.361E-02
RMM:   6    -0.116548396132E+04    0.36253E-05   -0.76470E-05  1571   0.121E-02    0.252E-02
RMM:   7    -0.116548395263E+04    0.86857E-05   -0.15451E-05  1588   0.563E-03    0.177E-02
RMM:   8    -0.116548395182E+04    0.80774E-06   -0.13738E-05  1533   0.421E-03    0.101E-02
RMM:   9    -0.116548395169E+04    0.12991E-06   -0.35456E-06  1208   0.254E-03
   7 F= -.11654840E+04 E0= -.11654840E+04  d E =-.254944E-02  mag=     4.0000
       N       E                     dE             d eps       ncg     rms          rms(c)
DAV:   1    -0.116548444652E+04   -0.49469E-03   -0.50602E-01  1664   0.125E+00    0.155E-01
RMM:   2    -0.116548510999E+04   -0.66347E-03   -0.84033E-03  1540   0.162E-01    0.145E-01
RMM:   3    -0.116548516378E+04   -0.53792E-04   -0.17333E-03  1628   0.663E-02    0.130E-01
RMM:   4    -0.116548498311E+04    0.18067E-03   -0.42432E-04  1639   0.317E-02    0.947E-02
RMM:   5    -0.116548489901E+04    0.84107E-04   -0.65252E-04  1561   0.318E-02    0.426E-02
RMM:   6    -0.116548488615E+04    0.12858E-04   -0.10603E-04  1645   0.163E-02    0.265E-02
RMM:   7    -0.116548488620E+04   -0.51012E-07   -0.30221E-05  1690   0.787E-03    0.197E-02
RMM:   8    -0.116548487999E+04    0.62075E-05   -0.19922E-05  1534   0.533E-03    0.105E-02
RMM:   9    -0.116548488032E+04   -0.32482E-06   -0.78822E-06  1550   0.359E-03
   8 F= -.11654849E+04 E0= -.11654849E+04  d E =-.928622E-03  mag=     4.0000
       N       E                     dE             d eps       ncg     rms          rms(c)
DAV:   1    -0.116548511535E+04   -0.23535E-03   -0.53175E-02  1696   0.404E-01    0.506E-02
RMM:   2    -0.116548518276E+04   -0.67414E-04   -0.88493E-04  1540   0.527E-02    0.476E-02
RMM:   3    -0.116548518825E+04   -0.54846E-05   -0.18277E-04  1628   0.215E-02    0.430E-02
RMM:   4    -0.116548516835E+04    0.19897E-04   -0.43165E-05  1622   0.103E-02    0.315E-02
RMM:   5    -0.116548515738E+04    0.10967E-04   -0.75291E-05  1560   0.108E-02    0.134E-02
RMM:   6    -0.116548515628E+04    0.11035E-05   -0.11901E-05  1579   0.543E-03    0.842E-03
RMM:   7    -0.116548515647E+04   -0.19192E-06   -0.33810E-06  1215   0.269E-03
   9 F= -.11654852E+04 E0= -.11654852E+04  d E =-.120478E-02  mag=     4.0000
