       N       E                     dE             d eps       ncg     rms          rms(c)
DAV:   1     0.528732362988E+04    0.52873E+04   -0.17282E+05  1800   0.931E+02
DAV:   2     0.647901984225E+02   -0.52225E+04   -0.47686E+04  2484   0.219E+02
DAV:   3    -0.117911146913E+04   -0.12439E+04   -0.12349E+04  2052   0.118E+02
DAV:   4    -0.124027804025E+04   -0.61167E+02   -0.60727E+02  2160   0.370E+01
DAV:   5    -0.124250032233E+04   -0.22223E+01   -0.22135E+01  2376   0.596E+00    0.606E+01
RMM:   6    -0.123032957345E+04    0.12171E+02   -0.63001E+00  1854   0.342E+00    0.493E+01
RMM:   7    -0.118823579378E+04    0.42094E+02   -0.56132E+01  1894   0.994E+00    0.286E+01
RMM:   8    -0.117796178254E+04    0.10274E+02   -0.57060E+01  2036   0.121E+01    0.114E+01
RMM:   9    -0.117955447667E+04   -0.15927E+01   -0.69178E+00  2029   0.592E+00    0.918E+00
RMM:  10    -0.117836956182E+04    0.11849E+01   -0.27603E+00  1900   0.309E+00    0.360E+00
RMM:  11    -0.117833315150E+04    0.36410E-01   -0.35827E-01  1932   0.186E+00    0.181E+00
RMM:  12    -0.117829716326E+04    0.35988E-01   -0.22566E-01  2004   0.953E-01    0.885E-01
RMM:  13    -0.117829040962E+04    0.67536E-02   -0.11023E-01  2063   0.509E-01    0.359E-01
RMM:  14    -0.117828833789E+04    0.20717E-02   -0.16985E-02  1975   0.197E-01    0.215E-01
RMM:  15    -0.117828863552E+04   -0.29764E-03   -0.21049E-03  1817   0.107E-01    0.147E-01
RMM:  16    -0.117828902848E+04   -0.39296E-03   -0.11365E-03  1782   0.759E-02    0.811E-02
RMM:  17    -0.117828913965E+04   -0.11117E-03   -0.47462E-04  1364   0.490E-02    0.574E-02
RMM:  18    -0.117828911464E+04    0.25008E-04   -0.14094E-04  1086   0.363E-02
   1 F= -.11860135E+04 E0= -.11860135E+04  d E =-.118601E+04  mag=     0.0029
       N       E                     dE             d eps       ncg     rms          rms(c)
DAV:   1    -0.117828798438E+04    0.11553E-02   -0.36014E-01  1764   0.977E-01    0.186E-01
RMM:   2    -0.117828855223E+04   -0.56785E-03   -0.10807E-02  2010   0.171E-01    0.171E-01
RMM:   3    -0.117828826476E+04    0.28747E-03   -0.76448E-04  1488   0.659E-02    0.149E-01
RMM:   4    -0.117828770341E+04    0.56135E-03   -0.39900E-03  2021   0.909E-02    0.550E-02
RMM:   5    -0.117828767031E+04    0.33100E-04   -0.14839E-04  1100   0.377E-02
   2 F= -.11860126E+04 E0= -.11860126E+04  d E =0.951705E-03  mag=     0.0006
       N       E                     dE             d eps       ncg     rms          rms(c)
DAV:   1    -0.117828975320E+04   -0.20498E-02   -0.13964E-01  1980   0.605E-01    0.108E-01
RMM:   2    -0.117828986688E+04   -0.11369E-03   -0.31781E-03  1910   0.102E-01    0.970E-02
RMM:   3    -0.117828970143E+04    0.16545E-03   -0.24203E-04  1085   0.492E-02    0.797E-02
RMM:   4    -0.117828948178E+04    0.21965E-03   -0.14024E-03  1858   0.535E-02    0.275E-02
RMM:   5    -0.117828948810E+04   -0.63255E-05   -0.90536E-05  1071   0.399E-02
   3 F= -.11860141E+04 E0= -.11860141E+04  d E =-.557057E-03  mag=     0.0001
