       N       E                     dE             d eps       ncg     rms          rms(c)
DAV:   1     0.511074068118E+04    0.51107E+04   -0.17297E+05  1732   0.985E+02
DAV:   2     0.715527307028E+02   -0.50392E+04   -0.45919E+04  2296   0.227E+02
DAV:   3    -0.118213995995E+04   -0.12537E+04   -0.12419E+04  1936   0.121E+02
DAV:   4    -0.124113583150E+04   -0.58996E+02   -0.58521E+02  1856   0.341E+01
DAV:   5    -0.124260654630E+04   -0.14707E+01   -0.14640E+01  2024   0.495E+00    0.726E+01
RMM:   6    -0.122853793847E+04    0.14069E+02   -0.89362E+00  1506   0.368E+00    0.576E+01
RMM:   7    -0.119167388288E+04    0.36864E+02   -0.99542E+01  1564   0.116E+01    0.306E+01
RMM:   8    -0.118354968755E+04    0.81242E+01   -0.13855E+01  1507   0.556E+00    0.257E+01
RMM:   9    -0.117829245296E+04    0.52572E+01   -0.32876E+01  1540   0.732E+00    0.170E+01
RMM:  10    -0.117996267181E+04   -0.16702E+01   -0.94204E+00  1502   0.439E+00    0.138E+01
RMM:  11    -0.117767386875E+04    0.22888E+01   -0.46652E+00  1603   0.252E+00    0.722E+00
RMM:  12    -0.117743060135E+04    0.24327E+00   -0.14082E+00  1555   0.149E+00    0.497E+00
RMM:  13    -0.117701365474E+04    0.41695E+00   -0.55182E-01  1509   0.994E-01    0.221E+00
RMM:  14    -0.117694640032E+04    0.67254E-01   -0.28063E-01  1494   0.700E-01    0.160E+00
RMM:  15    -0.117698062064E+04   -0.34220E-01   -0.74892E-02  1532   0.384E-01    0.807E-01
RMM:  16    -0.117700747449E+04   -0.26854E-01   -0.59091E-02  1515   0.291E-01    0.244E+00
RMM:  17    -0.117699092958E+04    0.16545E-01   -0.95567E-03  1634   0.143E-01    0.723E-01
RMM:  18    -0.117699225819E+04   -0.13286E-02   -0.56056E-03  1596   0.931E-02    0.685E-01
RMM:  19    -0.117699333474E+04   -0.10766E-02   -0.21163E-03  1576   0.620E-02    0.825E-01
RMM:  20    -0.117699222286E+04    0.11119E-02   -0.37288E-03  1567   0.700E-02    0.750E-01
RMM:  21    -0.117699147231E+04    0.75055E-03   -0.12969E-02  1908   0.111E-01    0.288E-01
RMM:  22    -0.117699128799E+04    0.18432E-03   -0.98097E-04  1507   0.390E-02    0.211E-01
RMM:  23    -0.117699135007E+04   -0.62075E-04   -0.38298E-04  1707   0.192E-02    0.182E-01
RMM:  24    -0.117699136901E+04   -0.18941E-04   -0.17529E-04  1893   0.857E-03    0.201E-01
RMM:  25    -0.117699134519E+04    0.23814E-04   -0.33975E-04  1707   0.187E-02    0.161E-01
RMM:  26    -0.117699135023E+04   -0.50337E-05   -0.18848E-04  1568   0.142E-02    0.194E-01
RMM:  27    -0.117699136099E+04   -0.10763E-04   -0.61036E-05  1602   0.726E-03    0.236E-01
RMM:  28    -0.117699135717E+04    0.38189E-05   -0.38507E-05  1585   0.459E-03    0.230E-01
RMM:  29    -0.117699135348E+04    0.36906E-05   -0.26668E-05  1526   0.436E-03    0.215E-01
RMM:  30    -0.117699134097E+04    0.12510E-04   -0.14912E-05  1451   0.381E-03    0.166E-01
RMM:  31    -0.117699133808E+04    0.28892E-05   -0.61405E-06  1069   0.225E-03    0.139E-01
RMM:  32    -0.117699133772E+04    0.35925E-06   -0.76836E-06  1359   0.324E-03
   1 F= -.11842970E+04 E0= -.11842917E+04  d E =-.118430E+04  mag=     0.9878
