       N       E                     dE             d eps       ncg     rms          rms(c)
DAV:   1     0.499833819846E+04    0.49983E+04   -0.16880E+05  1656   0.988E+02
DAV:   2     0.147179391946E+02   -0.49836E+04   -0.45914E+04  2304   0.222E+02
DAV:   3    -0.117049399136E+04   -0.11852E+04   -0.11785E+04  1872   0.120E+02
DAV:   4    -0.122197428304E+04   -0.51480E+02   -0.51089E+02  1872   0.331E+01
DAV:   5    -0.122323452638E+04   -0.12602E+01   -0.12553E+01  2016   0.487E+00    0.627E+01
RMM:   6    -0.120788363905E+04    0.15351E+02   -0.14865E+01  1440   0.436E+00    0.497E+01
RMM:   7    -0.118642094716E+04    0.21463E+02   -0.17712E+01  1440   0.527E+00    0.364E+01
RMM:   8    -0.116201827563E+04    0.24403E+02   -0.37287E+01  1440   0.757E+00    0.236E+01
RMM:   9    -0.115936117332E+04    0.26571E+01   -0.42076E+01  1440   0.800E+00    0.878E+00
RMM:  10    -0.115898541818E+04    0.37576E+00   -0.90356E-01  1497   0.142E+00    0.657E+00
RMM:  11    -0.115841991106E+04    0.56551E+00   -0.30109E+00  1440   0.204E+00    0.158E+00
RMM:  12    -0.115832335591E+04    0.96555E-01   -0.26841E-01  1440   0.575E-01    0.112E+00
RMM:  13    -0.115829588819E+04    0.27468E-01   -0.70686E-02  1440   0.324E-01    0.494E-01
RMM:  14    -0.115829411036E+04    0.17778E-02   -0.18315E-02  1446   0.169E-01    0.232E-01
RMM:  15    -0.115829367706E+04    0.43331E-03   -0.47717E-03  1476   0.835E-02    0.174E-01
RMM:  16    -0.115829412580E+04   -0.44874E-03   -0.92503E-04  1324   0.393E-02    0.115E-01
RMM:  17    -0.115829410192E+04    0.23875E-04   -0.11297E-03  1418   0.405E-02    0.588E-02
RMM:  18    -0.115829408131E+04    0.20616E-04   -0.24031E-04   956   0.197E-02
   1 F= -.11653545E+04 E0= -.11653545E+04  d E =-.116535E+04  mag=    -0.0023
       N       E                     dE             d eps       ncg     rms          rms(c)
DAV:   1    -0.115829366355E+04    0.43838E-03   -0.18770E+00  1512   0.216E+00    0.519E-01
RMM:   2    -0.115829582742E+04   -0.21639E-02   -0.37051E-02  1441   0.291E-01    0.476E-01
RMM:   3    -0.115829468289E+04    0.11445E-02   -0.26796E-03  1514   0.646E-02    0.419E-01
RMM:   4    -0.115829219087E+04    0.24920E-02   -0.90351E-03  1440   0.115E-01    0.153E-01
RMM:   5    -0.115829227272E+04   -0.81850E-04   -0.11660E-03  1440   0.434E-02    0.942E-02
RMM:   6    -0.115829210196E+04    0.17075E-03   -0.90257E-04  1352   0.330E-02    0.386E-02
RMM:   7    -0.115829211124E+04   -0.92778E-05   -0.90410E-05   877   0.125E-02
   2 F= -.11653528E+04 E0= -.11653528E+04  d E =0.167694E-02  mag=     0.0001
       N       E                     dE             d eps       ncg     rms          rms(c)
DAV:   1    -0.115829782869E+04   -0.57267E-02   -0.57562E-01  1620   0.119E+00    0.283E-01
RMM:   2    -0.115829824682E+04   -0.41813E-03   -0.94396E-03  1440   0.155E-01    0.262E-01
RMM:   3    -0.115829784086E+04    0.40595E-03   -0.62741E-04  1125   0.332E-02    0.228E-01
RMM:   4    -0.115829708705E+04    0.75381E-03   -0.29755E-03  1440   0.662E-02    0.797E-02
RMM:   5    -0.115829709379E+04   -0.67419E-05   -0.24640E-04   979   0.219E-02
   3 F= -.11653576E+04 E0= -.11653576E+04  d E =-.314283E-02  mag=     0.0000
       N       E                     dE             d eps       ncg     rms          rms(c)
DAV:   1    -0.115829912164E+04   -0.20346E-02   -0.65098E-01  1440   0.135E+00    0.288E-01
RMM:   2    -0.115829948684E+04   -0.36520E-03   -0.11794E-02  1440   0.181E-01    0.248E-01
RMM:   3    -0.115829855935E+04    0.92749E-03   -0.89466E-04  1438   0.421E-02    0.194E-01
RMM:   4    -0.115829758830E+04    0.97105E-03   -0.47179E-03  1440   0.794E-02    0.660E-02
RMM:   5    -0.115829753145E+04    0.56843E-04   -0.12743E-04   926   0.173E-02
   4 F= -.11653577E+04 E0= -.11653577E+04  d E =-.128735E-03  mag=     0.0000
       N       E                     dE             d eps       ncg     rms          rms(c)
DAV:   1    -0.115829880856E+04   -0.12203E-02   -0.14917E-01  1584   0.646E-01    0.123E-01
RMM:   2    -0.115829884125E+04   -0.32691E-04   -0.23327E-03  1440   0.798E-02    0.112E-01
RMM:   3    -0.115829863714E+04    0.20411E-03   -0.16679E-04   907   0.195E-02    0.900E-02
RMM:   4    -0.115829839180E+04    0.24534E-03   -0.12662E-03  1440   0.420E-02    0.279E-02
RMM:   5    -0.115829838704E+04    0.47659E-05   -0.24932E-05   856   0.855E-03
   5 F= -.11653587E+04 E0= -.11653587E+04  d E =-.113400E-02  mag=     0.0000
       N       E                     dE             d eps       ncg     rms          rms(c)
DAV:   1    -0.115829878301E+04   -0.39120E-03   -0.29260E-01  1584   0.897E-01    0.117E-01
RMM:   2    -0.115829911595E+04   -0.33294E-03   -0.48136E-03  1440   0.117E-01    0.109E-01
RMM:   3    -0.115829903825E+04    0.77699E-04   -0.22373E-04   994   0.240E-02
   6 F= -.11653594E+04 E0= -.11653594E+04  d E =-.610950E-03  mag=    -0.0000
       N       E                     dE             d eps       ncg     rms          rms(c)
DAV:   1    -0.115829894187E+04    0.17407E-03   -0.71947E-03  1584   0.145E-01    0.281E-02
RMM:   2    -0.115829896056E+04   -0.18688E-04   -0.41215E-04  1137   0.349E-02
   7 F= -.11653593E+04 E0= -.11653593E+04  d E =-.537923E-03  mag=    -0.0000
