       N       E                     dE             d eps       ncg     rms          rms(c)
DAV:   1     0.494253484829E+04    0.49425E+04   -0.17002E+05  1800   0.909E+02
DAV:   2    -0.490156276341E+02   -0.49916E+04   -0.45532E+04  2520   0.209E+02
DAV:   3    -0.118669298796E+04   -0.11377E+04   -0.11320E+04  2124   0.110E+02
DAV:   4    -0.123233979010E+04   -0.45647E+02   -0.45420E+02  2052   0.289E+01
DAV:   5    -0.123350611605E+04   -0.11663E+01   -0.11633E+01  2268   0.429E+00    0.655E+01
RMM:   6    -0.121285949719E+04    0.20647E+02   -0.23978E+01  1584   0.462E+00    0.541E+01
RMM:   7    -0.119960346871E+04    0.13256E+02   -0.86075E+00  1584   0.326E+00    0.444E+01
RMM:   8    -0.118482650002E+04    0.14777E+02   -0.12835E+01  1584   0.387E+00    0.367E+01
RMM:   9    -0.116643955436E+04    0.18387E+02   -0.28383E+01  1584   0.605E+00    0.265E+01
RMM:  10    -0.116231726053E+04    0.41223E+01   -0.11917E+01  1584   0.396E+00    0.182E+01
RMM:  11    -0.116286973060E+04   -0.55247E+00   -0.69485E+00  1586   0.291E+00    0.119E+01
RMM:  12    -0.116242388794E+04    0.44584E+00   -0.34046E-01  1659   0.710E-01    0.730E+00
RMM:  13    -0.116211923548E+04    0.30465E+00   -0.50986E-01  1584   0.781E-01    0.587E+00
RMM:  14    -0.116220664956E+04   -0.87414E-01   -0.35701E-01  1584   0.632E-01    0.489E+00
RMM:  15    -0.116199331877E+04    0.21333E+00   -0.57311E-01  1584   0.590E-01    0.162E+00
RMM:  16    -0.116199773290E+04   -0.44141E-02   -0.23424E-02  1673   0.127E-01    0.146E+00
RMM:  17    -0.116202060024E+04   -0.22867E-01   -0.34706E-02  1586   0.159E-01    0.109E+00
RMM:  18    -0.116201539706E+04    0.52032E-02   -0.32894E-02  1584   0.187E-01    0.435E-01
RMM:  19    -0.116201720431E+04   -0.18073E-02   -0.39365E-03  1585   0.719E-02    0.287E-01
RMM:  20    -0.116201750009E+04   -0.29578E-03   -0.12538E-03  1274   0.326E-02    0.192E-01
RMM:  21    -0.116201827562E+04   -0.77553E-03   -0.71356E-04  1381   0.297E-02    0.303E-01
RMM:  22    -0.116201771348E+04    0.56214E-03   -0.94486E-04  1172   0.285E-02    0.253E-01
RMM:  23    -0.116201741117E+04    0.30231E-03   -0.13894E-04  1041   0.133E-02    0.160E-01
RMM:  24    -0.116201750557E+04   -0.94403E-04   -0.12156E-04  1031   0.110E-02
   1 F= -.11693161E+04 E0= -.11693160E+04  d E =-.116932E+04  mag=    -1.0009
       N       E                     dE             d eps       ncg     rms          rms(c)
DAV:   1    -0.116201814990E+04   -0.73874E-03   -0.13416E+00  1620   0.163E+00    0.439E-01
RMM:   2    -0.116202035381E+04   -0.22039E-02   -0.30140E-02  1584   0.220E-01    0.425E-01
RMM:   3    -0.116202027559E+04    0.78226E-04   -0.20503E-03  1607   0.500E-02    0.380E-01
RMM:   4    -0.116201988337E+04    0.39222E-03   -0.10644E-03  1540   0.371E-02    0.268E-01
RMM:   5    -0.116201947895E+04    0.40442E-03   -0.24974E-03  1584   0.538E-02    0.134E-01
RMM:   6    -0.116201954237E+04   -0.63422E-04   -0.43197E-04  1297   0.244E-02
   2 F= -.11693183E+04 E0= -.11693183E+04  d E =-.220608E-02  mag=    -1.0004
       N       E                     dE             d eps       ncg     rms          rms(c)
DAV:   1    -0.116202084546E+04   -0.13665E-02   -0.21001E-01  1656   0.644E-01    0.167E-01
RMM:   2    -0.116202107889E+04   -0.23343E-03   -0.37709E-03  1582   0.818E-02    0.154E-01
RMM:   3    -0.116202103234E+04    0.46554E-04   -0.21203E-04  1105   0.177E-02
   3 F= -.11693197E+04 E0= -.11693197E+04  d E =-.362443E-02  mag=    -1.0004
       N       E                     dE             d eps       ncg     rms          rms(c)
DAV:   1    -0.116201890016E+04    0.21787E-02   -0.12157E+00  1692   0.152E+00    0.373E-01
RMM:   2    -0.116202088252E+04   -0.19824E-02   -0.21305E-02  1597   0.191E-01    0.286E-01
RMM:   3    -0.116202091946E+04   -0.36940E-04   -0.10634E-03  1432   0.399E-02    0.228E-01
RMM:   4    -0.116202071542E+04    0.20404E-03   -0.11325E-03  1551   0.381E-02    0.134E-01
RMM:   5    -0.116202076654E+04   -0.51115E-04   -0.11702E-04  1050   0.147E-02
   4 F= -.11693194E+04 E0= -.11693193E+04  d E =0.354274E-03  mag=    -1.0003
       N       E                     dE             d eps       ncg     rms          rms(c)
DAV:   1    -0.116202175393E+04   -0.10385E-02   -0.30310E-01  1728   0.763E-01    0.191E-01
RMM:   2    -0.116202223536E+04   -0.48143E-03   -0.55855E-03  1587   0.977E-02    0.150E-01
RMM:   3    -0.116202220781E+04    0.27549E-04   -0.28103E-04  1119   0.215E-02
   5 F= -.11693208E+04 E0= -.11693208E+04  d E =-.112858E-02  mag=    -1.0004
       N       E                     dE             d eps       ncg     rms          rms(c)
DAV:   1    -0.116202175137E+04    0.48399E-03   -0.76718E-01  1728   0.114E+00    0.297E-01
RMM:   2    -0.116202297567E+04   -0.12243E-02   -0.12745E-02  1584   0.137E-01    0.222E-01
RMM:   3    -0.116202310534E+04   -0.12967E-03   -0.64237E-04  1249   0.310E-02    0.151E-01
RMM:   4    -0.116202299566E+04    0.10968E-03   -0.42788E-04  1215   0.241E-02    0.980E-02
RMM:   5    -0.116202301590E+04   -0.20245E-04   -0.20427E-04  1072   0.181E-02
   6 F= -.11693220E+04 E0= -.11693220E+04  d E =-.118651E-02  mag=    -1.0004
       N       E                     dE             d eps       ncg     rms          rms(c)
DAV:   1    -0.116202307604E+04   -0.80380E-04   -0.16839E-03  1764   0.544E-02    0.216E-02
RMM:   2    -0.116202308143E+04   -0.53869E-05   -0.32405E-05   976   0.770E-03
   7 F= -.11693221E+04 E0= -.11693220E+04  d E =-.123554E-02  mag=    -1.0004
       N       E                     dE             d eps       ncg     rms          rms(c)
DAV:   1    -0.116202259182E+04    0.48422E-03   -0.33379E-01  1692   0.866E-01    0.149E-01
RMM:   2    -0.116202305675E+04   -0.46493E-03   -0.60499E-03  1585   0.110E-01    0.126E-01
RMM:   3    -0.116202301330E+04    0.43445E-04   -0.26385E-04  1158   0.226E-02
   8 F= -.11693227E+04 E0= -.11693226E+04  d E =-.593564E-03  mag=    -1.0004
       N       E                     dE             d eps       ncg     rms          rms(c)
DAV:   1    -0.116202306932E+04   -0.12575E-04   -0.95330E-03  1728   0.149E-01    0.507E-02
RMM:   2    -0.116202311823E+04   -0.48909E-04   -0.35272E-04  1195   0.288E-02
   9 F= -.11693227E+04 E0= -.11693226E+04  d E =-.598665E-03  mag=    -1.0004
