       N       E                     dE             d eps       ncg     rms          rms(c)
DAV:   1     0.497229826724E+04    0.49723E+04   -0.17429E+05  1872   0.918E+02
DAV:   2    -0.377314504448E+02   -0.50100E+04   -0.45817E+04  2520   0.210E+02
DAV:   3    -0.119837165340E+04   -0.11606E+04   -0.11559E+04  2088   0.112E+02
DAV:   4    -0.124627532037E+04   -0.47904E+02   -0.47654E+02  2016   0.308E+01
DAV:   5    -0.124763511162E+04   -0.13598E+01   -0.13567E+01  2340   0.476E+00    0.641E+01
RMM:   6    -0.123195018653E+04    0.15685E+02   -0.89539E+00  1639   0.349E+00    0.524E+01
RMM:   7    -0.119667712377E+04    0.35273E+02   -0.10689E+02  1659   0.117E+01    0.376E+01
RMM:   8    -0.118968350907E+04    0.69936E+01   -0.37182E+00  1732   0.277E+00    0.303E+01
RMM:   9    -0.118292074341E+04    0.67628E+01   -0.92948E+00  1624   0.344E+00    0.217E+01
RMM:  10    -0.118360573424E+04   -0.68499E+00   -0.24526E+01  1608   0.576E+00    0.139E+01
RMM:  11    -0.118326827385E+04    0.33746E+00   -0.20281E+00  1625   0.231E+00    0.116E+01
RMM:  12    -0.117943609134E+04    0.38322E+01   -0.30302E+00  1710   0.182E+00    0.618E+00
RMM:  13    -0.117889504047E+04    0.54105E+00   -0.13911E+00  1661   0.129E+00    0.469E+00
RMM:  14    -0.117895475643E+04   -0.59716E-01   -0.16291E-01  1766   0.453E-01    0.590E+00
RMM:  15    -0.117897741744E+04   -0.22661E-01   -0.39648E-02  1743   0.248E-01    0.507E+00
RMM:  16    -0.117885622275E+04    0.12119E+00   -0.42012E-02  1684   0.208E-01    0.428E+00
RMM:  17    -0.117890266839E+04   -0.46446E-01   -0.14334E-01  1697   0.437E-01    0.325E+00
RMM:  18    -0.117892399938E+04   -0.21331E-01   -0.20434E-02  1740   0.205E-01    0.327E+00
RMM:  19    -0.117895416346E+04   -0.30164E-01   -0.90542E-02  1615   0.343E-01    0.281E+00
RMM:  20    -0.117897253590E+04   -0.18372E-01   -0.16942E-02  1600   0.220E-01    0.312E+00
RMM:  21    -0.117889891798E+04    0.73618E-01   -0.94575E-03  1656   0.124E-01    0.217E+00
RMM:  22    -0.117888879174E+04    0.10126E-01   -0.22916E-03  1440   0.540E-02    0.140E+00
RMM:  23    -0.117889405720E+04   -0.52655E-02   -0.10837E-03  1515   0.495E-02    0.131E+00
RMM:  24    -0.117888891749E+04    0.51397E-02   -0.21683E-03  1602   0.597E-02    0.105E+00
RMM:  25    -0.117887894542E+04    0.99721E-02   -0.19899E-03  1450   0.528E-02    0.101E+00
RMM:  26    -0.117886698544E+04    0.11960E-01   -0.21148E-03  1405   0.536E-02    0.105E+00
RMM:  27    -0.117886387055E+04    0.31149E-02   -0.91634E-04  1290   0.364E-02    0.134E+00
RMM:  28    -0.117884654124E+04    0.17329E-01   -0.18169E-03  1376   0.501E-02    0.133E+00
RMM:  29    -0.117883050554E+04    0.16036E-01   -0.18687E-03  1383   0.461E-02    0.148E+00
RMM:  30    -0.117886563419E+04   -0.35129E-01   -0.57261E-03  1526   0.917E-02    0.107E+00
RMM:  31    -0.117887695466E+04   -0.11320E-01   -0.20520E-03  1382   0.506E-02    0.880E-01
RMM:  32    -0.117889461978E+04   -0.17665E-01   -0.91657E-03  1599   0.102E-01    0.315E-01
RMM:  33    -0.117889791632E+04   -0.32965E-02   -0.41603E-03  1508   0.688E-02    0.292E-01
RMM:  34    -0.117889737373E+04    0.54259E-03   -0.12115E-03  1254   0.381E-02    0.170E-01
RMM:  35    -0.117889770999E+04   -0.33625E-03   -0.67082E-04  1239   0.360E-02    0.117E-01
RMM:  36    -0.117889695205E+04    0.75793E-03   -0.36956E-04  1136   0.246E-02    0.238E-01
RMM:  37    -0.117889680199E+04    0.15006E-03   -0.35522E-05  1001   0.948E-03    0.216E-01
RMM:  38    -0.117889772347E+04   -0.92148E-03   -0.33766E-04  1134   0.217E-02    0.859E-02
RMM:  39    -0.117889784903E+04   -0.12556E-03   -0.26055E-04  1122   0.184E-02    0.771E-02
RMM:  40    -0.117889784271E+04    0.63204E-05   -0.33126E-05   921   0.752E-03
   1 F= -.11859568E+04 E0= -.11859560E+04  d E =-.118596E+04  mag=     0.9878
       N       E                     dE             d eps       ncg     rms          rms(c)
DAV:   1    -0.117888075775E+04    0.17091E-01   -0.28519E+00  1728   0.234E+00    0.707E-01
RMM:   2    -0.117889615309E+04   -0.15395E-01   -0.17100E-01  1749   0.416E-01    0.911E-01
RMM:   3    -0.117889548415E+04    0.66894E-03   -0.94806E-03  1678   0.122E-01    0.102E+00
RMM:   4    -0.117889524947E+04    0.23468E-03   -0.16826E-03  1300   0.355E-02    0.981E-01
RMM:   5    -0.117889455412E+04    0.69535E-03   -0.18755E-03  1326   0.361E-02    0.102E+00
RMM:   6    -0.117889430661E+04    0.24750E-03   -0.17974E-03  1435   0.399E-02    0.113E+00
RMM:   7    -0.117889397588E+04    0.33074E-03   -0.13025E-03  1334   0.394E-02    0.128E+00
RMM:   8    -0.117889402247E+04   -0.46590E-04   -0.16500E-04  1084   0.192E-02
   2 F= -.11859544E+04 E0= -.11859535E+04  d E =0.241101E-02  mag=     0.9813
       N       E                     dE             d eps       ncg     rms          rms(c)
DAV:   1    -0.117889777916E+04   -0.38033E-02   -0.86218E-01  1764   0.128E+00    0.127E+00
RMM:   2    -0.117890162706E+04   -0.38479E-02   -0.53037E-02  1701   0.234E-01    0.101E+00
RMM:   3    -0.117890101278E+04    0.61428E-03   -0.51723E-03  1498   0.734E-02    0.836E-01
RMM:   4    -0.117890040182E+04    0.61096E-03   -0.42569E-03  1400   0.530E-02    0.455E-01
RMM:   5    -0.117890051336E+04   -0.11154E-03   -0.45144E-04  1175   0.260E-02    0.323E-01
RMM:   6    -0.117890026319E+04    0.25017E-03   -0.21394E-03  1251   0.355E-02    0.409E-02
RMM:   7    -0.117890027183E+04   -0.86389E-05   -0.11166E-04  1055   0.150E-02
   3 F= -.11859599E+04 E0= -.11859590E+04  d E =-.306720E-02  mag=     0.9826
       N       E                     dE             d eps       ncg     rms          rms(c)
DAV:   1    -0.117889598123E+04    0.42820E-02   -0.12960E+00  1800   0.168E+00    0.398E-01
RMM:   2    -0.117890040446E+04   -0.44232E-02   -0.50868E-02  1700   0.271E-01    0.545E-01
RMM:   3    -0.117889986399E+04    0.54047E-03   -0.27920E-03  1485   0.712E-02    0.517E-01
RMM:   4    -0.117890012329E+04   -0.25930E-03   -0.59863E-04  1169   0.258E-02    0.555E-01
RMM:   5    -0.117889890960E+04    0.12137E-02   -0.49053E-03  1586   0.707E-02    0.181E-01
RMM:   6    -0.117889892331E+04   -0.13710E-04   -0.47278E-04  1168   0.304E-02
   4 F= -.11859594E+04 E0= -.11859586E+04  d E =0.496713E-03  mag=     0.9824
       N       E                     dE             d eps       ncg     rms          rms(c)
DAV:   1    -0.117890095615E+04   -0.20466E-02   -0.36305E-01  1800   0.892E-01    0.208E-01
RMM:   2    -0.117890213757E+04   -0.11814E-02   -0.14082E-02  1689   0.142E-01    0.308E-01
RMM:   3    -0.117890195469E+04    0.18287E-03   -0.74482E-04  1163   0.374E-02    0.288E-01
RMM:   4    -0.117890205574E+04   -0.10105E-03   -0.16795E-04  1096   0.167E-02    0.307E-01
RMM:   5    -0.117890157142E+04    0.48432E-03   -0.14116E-03  1552   0.392E-02    0.103E-01
RMM:   6    -0.117890156490E+04    0.65191E-05   -0.17438E-04  1072   0.182E-02
   5 F= -.11859616E+04 E0= -.11859608E+04  d E =-.170127E-02  mag=     0.9829
       N       E                     dE             d eps       ncg     rms          rms(c)
DAV:   1    -0.117890010537E+04    0.14660E-02   -0.40840E-01  1944   0.114E+00    0.246E-01
RMM:   2    -0.117890301576E+04   -0.29104E-02   -0.31381E-02  1694   0.189E-01    0.210E-01
RMM:   3    -0.117890283889E+04    0.17687E-03   -0.17319E-03  1263   0.551E-02    0.167E-01
RMM:   4    -0.117890265577E+04    0.18312E-03   -0.64539E-04  1312   0.296E-02    0.117E-01
RMM:   5    -0.117890261589E+04    0.39882E-04   -0.32315E-04  1180   0.242E-02
   6 F= -.11859628E+04 E0= -.11859620E+04  d E =-.119126E-02  mag=     0.9836
       N       E                     dE             d eps       ncg     rms          rms(c)
DAV:   1    -0.117890275011E+04   -0.94341E-04   -0.22794E-02  1944   0.266E-01    0.761E-02
RMM:   2    -0.117890288578E+04   -0.13567E-03   -0.16104E-03  1370   0.448E-02    0.492E-02
RMM:   3    -0.117890286652E+04    0.19264E-04   -0.88853E-05  1044   0.143E-02
   7 F= -.11859630E+04 E0= -.11859622E+04  d E =-.141065E-02  mag=     0.9830
       N       E                     dE             d eps       ncg     rms          rms(c)
DAV:   1    -0.117890271966E+04    0.16612E-03   -0.19320E-01  1728   0.670E-01    0.132E-01
RMM:   2    -0.117890373488E+04   -0.10152E-02   -0.11355E-02  1699   0.109E-01    0.109E-01
RMM:   3    -0.117890365725E+04    0.77634E-04   -0.59412E-04  1113   0.306E-02
   8 F= -.11859640E+04 E0= -.11859631E+04  d E =-.972546E-03  mag=     0.9827
       N       E                     dE             d eps       ncg     rms          rms(c)
DAV:   1    -0.117890344166E+04    0.29322E-03   -0.55751E-02  1836   0.361E-01    0.140E-01
RMM:   2    -0.117890367145E+04   -0.22979E-03   -0.34957E-03  1435   0.581E-02    0.118E-01
RMM:   3    -0.117890359788E+04    0.73569E-04   -0.24687E-04  1084   0.195E-02
   9 F= -.11859640E+04 E0= -.11859632E+04  d E =-.100999E-02  mag=     0.9819
       N       E                     dE             d eps       ncg     rms          rms(c)
DAV:   1    -0.117890431744E+04   -0.64599E-03   -0.11507E-01  1584   0.524E-01    0.114E-01
RMM:   2    -0.117890454251E+04   -0.22506E-03   -0.32108E-03  1661   0.795E-02    0.139E-01
RMM:   3    -0.117890452000E+04    0.22503E-04   -0.20242E-04  1099   0.223E-02
  10 F= -.11859650E+04 E0= -.11859641E+04  d E =-.101681E-02  mag=     0.9820
       N       E                     dE             d eps       ncg     rms          rms(c)
DAV:   1    -0.117890463554E+04   -0.93035E-04   -0.10582E-01  1584   0.500E-01    0.213E-01
RMM:   2    -0.117890474230E+04   -0.10676E-03   -0.28787E-03  1655   0.766E-02    0.196E-01
RMM:   3    -0.117890464144E+04    0.10086E-03   -0.16905E-04  1095   0.213E-02    0.185E-01
RMM:   4    -0.117890457820E+04    0.63234E-04   -0.99935E-04  1492   0.360E-02
  11 F= -.11859652E+04 E0= -.11859644E+04  d E =-.116514E-02  mag=     0.9807
       N       E                     dE             d eps       ncg     rms          rms(c)
DAV:   1    -0.117890515340E+04   -0.51197E-03   -0.75008E-02  1692   0.380E-01    0.133E-01
RMM:   2    -0.117890521699E+04   -0.63587E-04   -0.14732E-03  1519   0.532E-02    0.119E-01
RMM:   3    -0.117890519550E+04    0.21492E-04   -0.11232E-04  1059   0.165E-02
  12 F= -.11859659E+04 E0= -.11859650E+04  d E =-.712373E-03  mag=     0.9812
       N       E                     dE             d eps       ncg     rms          rms(c)
DAV:   1    -0.117890544285E+04   -0.22586E-03   -0.19538E-01  1584   0.609E-01    0.215E-01
RMM:   2    -0.117890563522E+04   -0.19237E-03   -0.40355E-03  1603   0.878E-02    0.246E-01
RMM:   3    -0.117890558867E+04    0.46554E-04   -0.29985E-04  1134   0.245E-02
  13 F= -.11859665E+04 E0= -.11859655E+04  d E =-.125695E-02  mag=     0.9814
       N       E                     dE             d eps       ncg     rms          rms(c)
DAV:   1    -0.117890631086E+04   -0.67564E-03   -0.51654E-02  1800   0.355E-01    0.291E-01
RMM:   2    -0.117890626692E+04    0.43946E-04   -0.15758E-03  1599   0.581E-02    0.265E-01
RMM:   3    -0.117890605394E+04    0.21298E-03   -0.99747E-04  1495   0.362E-02    0.154E-01
RMM:   4    -0.117890623109E+04   -0.17715E-03   -0.86678E-04  1481   0.341E-02    0.788E-02
RMM:   5    -0.117890620168E+04    0.29412E-04   -0.57549E-05  1030   0.164E-02
  14 F= -.11859671E+04 E0= -.11859662E+04  d E =-.636722E-03  mag=     0.9811
       N       E                     dE             d eps       ncg     rms          rms(c)
DAV:   1    -0.117890612645E+04    0.10464E-03   -0.23262E-03  1800   0.765E-02    0.385E-02
RMM:   2    -0.117890613907E+04   -0.12625E-04   -0.12873E-04  1007   0.177E-02
  15 F= -.11859670E+04 E0= -.11859661E+04  d E =-.578617E-03  mag=     0.9811
