       N       E                     dE             d eps       ncg     rms          rms(c)
DAV:   1     0.460115932885E+04    0.46012E+04   -0.17570E+05  1888   0.933E+02
DAV:   2    -0.944081770543E+02   -0.46956E+04   -0.42643E+04  2464   0.209E+02
DAV:   3    -0.118667508968E+04   -0.10923E+04   -0.10839E+04  2016   0.109E+02
DAV:   4    -0.123133319441E+04   -0.44658E+02   -0.44381E+02  1952   0.291E+01
DAV:   5    -0.123250334825E+04   -0.11702E+01   -0.11676E+01  2368   0.443E+00    0.712E+01
RMM:   6    -0.121417307625E+04    0.18330E+02   -0.22582E+01  1622   0.566E+00    0.513E+01
RMM:   7    -0.120184016430E+04    0.12333E+02   -0.87839E+00  1538   0.403E+00    0.425E+01
RMM:   8    -0.117225825780E+04    0.29582E+02   -0.45074E+01  1605   0.852E+00    0.262E+01
RMM:   9    -0.116376045599E+04    0.84978E+01   -0.25368E+01  1536   0.667E+00    0.168E+01
RMM:  10    -0.116501862987E+04   -0.12582E+01   -0.10592E+01  1538   0.455E+00    0.923E+00
RMM:  11    -0.116502077927E+04   -0.21494E-02   -0.15999E+00  1595   0.212E+00    0.567E+00
RMM:  12    -0.116467331951E+04    0.34746E+00   -0.50593E-01  1537   0.104E+00    0.360E+00
RMM:  13    -0.116445613584E+04    0.21718E+00   -0.94832E-01  1540   0.124E+00    0.102E+00
RMM:  14    -0.116446258567E+04   -0.64498E-02   -0.77574E-02  1546   0.479E-01    0.602E-01
RMM:  15    -0.116445890223E+04    0.36834E-02   -0.21051E-02  1588   0.223E-01    0.365E-01
RMM:  16    -0.116445971201E+04   -0.80979E-03   -0.12708E-02  1563   0.151E-01    0.241E-01
RMM:  17    -0.116446009727E+04   -0.38525E-03   -0.24020E-03  1614   0.764E-02    0.188E-01
RMM:  18    -0.116446039039E+04   -0.29313E-03   -0.15115E-03  1638   0.547E-02    0.135E-01
RMM:  19    -0.116446057153E+04   -0.18113E-03   -0.18252E-03  1541   0.555E-02    0.106E-01
RMM:  20    -0.116446048755E+04    0.83976E-04   -0.34435E-04  1536   0.269E-02    0.463E-02
RMM:  21    -0.116446048410E+04    0.34524E-05   -0.95382E-05  1595   0.130E-02    0.338E-02
RMM:  22    -0.116446048041E+04    0.36851E-05   -0.37511E-05  1669   0.767E-03    0.282E-02
RMM:  23    -0.116446047944E+04    0.97155E-06   -0.18623E-05  1562   0.576E-03    0.137E-02
RMM:  24    -0.116446047842E+04    0.10258E-05   -0.10739E-05  1575   0.423E-03    0.123E-02
RMM:  25    -0.116446047771E+04    0.70977E-06   -0.29915E-06  1107   0.238E-03
   1 F= -.11644605E+04 E0= -.11644596E+04  d E =-.116446E+04  mag=     3.0190
       N       E                     dE             d eps       ncg     rms          rms(c)
DAV:   1    -0.116425813170E+04    0.20235E+00   -0.35729E+01  1792   0.101E+01    0.178E+00
RMM:   2    -0.116437884670E+04   -0.12071E+00   -0.12464E+00  1561   0.169E+00    0.194E+00
RMM:   3    -0.116440664072E+04   -0.27794E-01   -0.28643E-01  1742   0.683E-01    0.175E+00
RMM:   4    -0.116440440308E+04    0.22376E-02   -0.58178E-02  1923   0.286E-01    0.161E+00
RMM:   5    -0.116438835274E+04    0.16050E-01   -0.46309E-02  1552   0.268E-01    0.110E+00
RMM:   6    -0.116438770914E+04    0.64359E-03   -0.40981E-02  1572   0.240E-01    0.860E-01
RMM:   7    -0.116438688514E+04    0.82400E-03   -0.42700E-03  1716   0.100E-01    0.739E-01
RMM:   8    -0.116438677825E+04    0.10689E-03   -0.37125E-03  1573   0.765E-02    0.470E-01
RMM:   9    -0.116438662999E+04    0.14826E-03   -0.13023E-03  1705   0.463E-02    0.392E-01
RMM:  10    -0.116438636036E+04    0.26963E-03   -0.72056E-04  1615   0.332E-02    0.305E-01
RMM:  11    -0.116438621089E+04    0.14947E-03   -0.74562E-04  1616   0.322E-02    0.164E-01
RMM:  12    -0.116438620451E+04    0.63824E-05   -0.12295E-04  1805   0.149E-02    0.129E-01
RMM:  13    -0.116438619697E+04    0.75328E-05   -0.87635E-05  1564   0.118E-02    0.795E-02
RMM:  14    -0.116438619661E+04    0.36735E-06   -0.25690E-05  1665   0.687E-03    0.548E-02
RMM:  15    -0.116438619499E+04    0.16135E-05   -0.14961E-05  1491   0.471E-03    0.353E-02
RMM:  16    -0.116438619477E+04    0.21993E-06   -0.76531E-06  1373   0.334E-03
   2 F= -.11643862E+04 E0= -.11643833E+04  d E =0.742829E-01  mag=     3.0752
       N       E                     dE             d eps       ncg     rms          rms(c)
DAV:   1    -0.116444634861E+04   -0.60154E-01   -0.14360E+01  1728   0.645E+00    0.121E+00
RMM:   2    -0.116449232165E+04   -0.45973E-01   -0.48219E-01  1547   0.107E+00    0.122E+00
RMM:   3    -0.116450327109E+04   -0.10949E-01   -0.11902E-01  1683   0.438E-01    0.105E+00
RMM:   4    -0.116450228812E+04    0.98297E-03   -0.21395E-02  1874   0.180E-01    0.977E-01
RMM:   5    -0.116449692967E+04    0.53584E-02   -0.94452E-03  1557   0.129E-01    0.678E-01
RMM:   6    -0.116449550497E+04    0.14247E-02   -0.19675E-02  1642   0.165E-01    0.439E-01
RMM:   7    -0.116449543878E+04    0.66189E-04   -0.17692E-03  1692   0.674E-02    0.384E-01
RMM:   8    -0.116449548937E+04   -0.50595E-04   -0.59507E-04  1670   0.323E-02    0.293E-01
RMM:   9    -0.116449551867E+04   -0.29297E-04   -0.42082E-04  1614   0.251E-02    0.206E-01
RMM:  10    -0.116449545391E+04    0.64758E-04   -0.21680E-04  1631   0.186E-02    0.130E-01
RMM:  11    -0.116449542998E+04    0.23930E-04   -0.14821E-04  1633   0.148E-02    0.784E-02
RMM:  12    -0.116449542703E+04    0.29481E-05   -0.36558E-05  1598   0.809E-03    0.428E-02
RMM:  13    -0.116449542852E+04   -0.14832E-05   -0.20101E-05  1555   0.570E-03    0.218E-02
RMM:  14    -0.116449542828E+04    0.23994E-06   -0.46113E-06  1245   0.287E-03
   3 F= -.11644954E+04 E0= -.11644939E+04  d E =-.349506E-01  mag=     3.0354
       N       E                     dE             d eps       ncg     rms          rms(c)
DAV:   1    -0.116447991296E+04    0.15516E-01   -0.56337E+00  1760   0.439E+00    0.817E-01
RMM:   2    -0.116449913551E+04   -0.19223E-01   -0.19523E-01  1544   0.646E-01    0.716E-01
RMM:   3    -0.116450424942E+04   -0.51139E-02   -0.50772E-02  1631   0.261E-01    0.560E-01
RMM:   4    -0.116450427365E+04   -0.24226E-04   -0.64769E-03  1824   0.107E-01    0.472E-01
RMM:   5    -0.116450345376E+04    0.81988E-03   -0.29028E-03  1568   0.691E-02    0.294E-01
RMM:   6    -0.116450332642E+04    0.12735E-03   -0.25442E-03  1564   0.628E-02    0.186E-01
RMM:   7    -0.116450326417E+04    0.62249E-04   -0.39363E-04  1642   0.301E-02    0.134E-01
RMM:   8    -0.116450328674E+04   -0.22570E-04   -0.33300E-04  1630   0.228E-02    0.752E-02
RMM:   9    -0.116450327843E+04    0.83112E-05   -0.10055E-04  1681   0.131E-02    0.602E-02
RMM:  10    -0.116450327392E+04    0.45105E-05   -0.36283E-05  1666   0.795E-03    0.347E-02
RMM:  11    -0.116450327141E+04    0.25125E-05   -0.11904E-05  1593   0.467E-03    0.223E-02
RMM:  12    -0.116450327018E+04    0.12230E-05   -0.83400E-06  1521   0.371E-03    0.103E-02
RMM:  13    -0.116450326980E+04    0.38687E-06   -0.19954E-06  1070   0.195E-03
   4 F= -.11645033E+04 E0= -.11645014E+04  d E =-.784152E-02  mag=     3.0451
       N       E                     dE             d eps       ncg     rms          rms(c)
DAV:   1    -0.116450398032E+04   -0.71014E-03   -0.74274E-01  1760   0.159E+00    0.306E-01
RMM:   2    -0.116450647407E+04   -0.24937E-02   -0.25531E-02  1543   0.234E-01    0.262E-01
RMM:   3    -0.116450715938E+04   -0.68531E-03   -0.68032E-03  1637   0.948E-02    0.200E-01
RMM:   4    -0.116450715602E+04    0.33551E-05   -0.75998E-04  1804   0.377E-02    0.170E-01
RMM:   5    -0.116450705955E+04    0.96476E-04   -0.38811E-04  1560   0.252E-02    0.105E-01
RMM:   6    -0.116450705615E+04    0.33982E-05   -0.34272E-04  1566   0.230E-02    0.668E-02
RMM:   7    -0.116450704851E+04    0.76418E-05   -0.51429E-05  1614   0.110E-02    0.487E-02
RMM:   8    -0.116450705367E+04   -0.51637E-05   -0.43074E-05  1611   0.823E-03    0.275E-02
RMM:   9    -0.116450705295E+04    0.71730E-06   -0.13928E-05  1584   0.481E-03    0.215E-02
RMM:  10    -0.116450705264E+04    0.31157E-06   -0.49539E-06  1338   0.293E-03
   5 F= -.11645071E+04 E0= -.11645053E+04  d E =-.116244E-01  mag=     3.0415
       N       E                     dE             d eps       ncg     rms          rms(c)
DAV:   1    -0.116449738522E+04    0.96677E-02   -0.35041E+00  1824   0.364E+00    0.627E-01
RMM:   2    -0.116451124800E+04   -0.13863E-01   -0.14048E-01  1575   0.504E-01    0.474E-01
RMM:   3    -0.116451423560E+04   -0.29876E-02   -0.32550E-02  1633   0.203E-01    0.324E-01
RMM:   4    -0.116451399920E+04    0.23640E-03   -0.37797E-03  1774   0.828E-02    0.242E-01
RMM:   5    -0.116451345725E+04    0.54195E-03   -0.16131E-03  1566   0.527E-02    0.145E-01
RMM:   6    -0.116451337594E+04    0.81315E-04   -0.11796E-03  1565   0.461E-02    0.732E-02
RMM:   7    -0.116451342161E+04   -0.45675E-04   -0.23747E-04  1766   0.236E-02    0.440E-02
RMM:   8    -0.116451341271E+04    0.88992E-05   -0.56831E-05  1746   0.106E-02    0.317E-02
RMM:   9    -0.116451340064E+04    0.12077E-04   -0.37832E-05  1556   0.760E-03    0.213E-02
RMM:  10    -0.116451340195E+04   -0.13121E-05   -0.24893E-05  1568   0.647E-03    0.116E-02
RMM:  11    -0.116451340111E+04    0.83575E-06   -0.31459E-06  1134   0.283E-03
   6 F= -.11645134E+04 E0= -.11645113E+04  d E =-.634847E-02  mag=     3.0517
       N       E                     dE             d eps       ncg     rms          rms(c)
DAV:   1    -0.116451315918E+04    0.24277E-03   -0.17782E-01  1824   0.822E-01    0.142E-01
RMM:   2    -0.116451384922E+04   -0.69004E-03   -0.71799E-03  1571   0.113E-01    0.108E-01
RMM:   3    -0.116451400492E+04   -0.15571E-03   -0.16451E-03  1632   0.458E-02    0.729E-02
RMM:   4    -0.116451399879E+04    0.61341E-05   -0.20299E-04  1746   0.189E-02    0.538E-02
RMM:   5    -0.116451397987E+04    0.18920E-04   -0.75266E-05  1568   0.116E-02    0.334E-02
RMM:   6    -0.116451397989E+04   -0.20867E-07   -0.62465E-05  1555   0.106E-02    0.165E-02
RMM:   7    -0.116451398316E+04   -0.32663E-05   -0.12882E-05  1636   0.541E-03    0.987E-03
RMM:   8    -0.116451398279E+04    0.36449E-06   -0.28124E-06  1091   0.247E-03
   7 F= -.11645140E+04 E0= -.11645119E+04  d E =-.693015E-02  mag=     3.0494
       N       E                     dE             d eps       ncg     rms          rms(c)
DAV:   1    -0.116449418464E+04    0.19799E-01   -0.37379E+00  1760   0.378E+00    0.702E-01
RMM:   2    -0.116451456899E+04   -0.20384E-01   -0.19377E-01  1582   0.515E-01    0.483E-01
RMM:   3    -0.116451993179E+04   -0.53628E-02   -0.43660E-02  1632   0.200E-01    0.289E-01
RMM:   4    -0.116452020658E+04   -0.27478E-03   -0.36928E-03  1842   0.753E-02    0.216E-01
RMM:   5    -0.116452000588E+04    0.20069E-03   -0.10017E-03  1587   0.404E-02    0.134E-01
RMM:   6    -0.116451994137E+04    0.64515E-04   -0.65378E-04  1572   0.342E-02    0.732E-02
RMM:   7    -0.116451999981E+04   -0.58439E-04   -0.21941E-04  1635   0.213E-02    0.345E-02
RMM:   8    -0.116451999694E+04    0.28662E-05   -0.40932E-05  1790   0.955E-03    0.269E-02
RMM:   9    -0.116451999214E+04    0.48035E-05   -0.25234E-05  1549   0.633E-03    0.163E-02
RMM:  10    -0.116451999654E+04   -0.43979E-05   -0.97794E-06  1536   0.412E-03    0.921E-03
RMM:  11    -0.116451999588E+04    0.65447E-06   -0.18784E-06  1056   0.201E-03
   8 F= -.11645200E+04 E0= -.11645174E+04  d E =-.601309E-02  mag=     3.0643
       N       E                     dE             d eps       ncg     rms          rms(c)
DAV:   1    -0.116451990315E+04    0.93388E-04   -0.15461E-02  1888   0.244E-01    0.460E-02
RMM:   2    -0.116451998728E+04   -0.84136E-04   -0.86624E-04  1578   0.336E-02    0.320E-02
RMM:   3    -0.116452001512E+04   -0.27832E-04   -0.19523E-04  1623   0.131E-02    0.184E-02
RMM:   4    -0.116452001774E+04   -0.26237E-05   -0.17724E-05  1499   0.506E-03    0.140E-02
RMM:   5    -0.116452001776E+04   -0.20496E-07   -0.61742E-06  1175   0.284E-03
   9 F= -.11645200E+04 E0= -.11645175E+04  d E =-.603497E-02  mag=     3.0633
       N       E                     dE             d eps       ncg     rms          rms(c)
DAV:   1    -0.116448315123E+04    0.36867E-01   -0.37409E+00  1792   0.378E+00    0.863E-01
RMM:   2    -0.116451486668E+04   -0.31715E-01   -0.29587E-01  1586   0.539E-01    0.552E-01
RMM:   3    -0.116452474019E+04   -0.98735E-02   -0.73811E-02  1646   0.206E-01    0.271E-01
RMM:   4    -0.116452519053E+04   -0.45033E-03   -0.44987E-03  1915   0.701E-02    0.228E-01
RMM:   5    -0.116452509246E+04    0.98071E-04   -0.12717E-03  1582   0.417E-02    0.109E-01
RMM:   6    -0.116452509612E+04   -0.36666E-05   -0.52717E-04  1593   0.285E-02    0.618E-02
RMM:   7    -0.116452514701E+04   -0.50887E-04   -0.11706E-04  1664   0.143E-02    0.371E-02
RMM:   8    -0.116452516644E+04   -0.19426E-04   -0.49299E-05  1610   0.838E-03    0.245E-02
RMM:   9    -0.116452516754E+04   -0.11015E-05   -0.20287E-05  1589   0.535E-03    0.158E-02
RMM:  10    -0.116452517156E+04   -0.40258E-05   -0.58718E-06  1245   0.313E-03    0.101E-02
RMM:  11    -0.116452517174E+04   -0.17520E-06   -0.25642E-06  1092   0.190E-03
  10 F= -.11645252E+04 E0= -.11645221E+04  d E =-.515398E-02  mag=     3.0801
       N       E                     dE             d eps       ncg     rms          rms(c)
DAV:   1    -0.116452505824E+04    0.11333E-03   -0.14218E-02  1952   0.232E-01    0.472E-02
RMM:   2    -0.116452515211E+04   -0.93874E-04   -0.92997E-04  1585   0.319E-02    0.319E-02
RMM:   3    -0.116452518407E+04   -0.31961E-04   -0.21019E-04  1633   0.122E-02    0.169E-02
RMM:   4    -0.116452518760E+04   -0.35250E-05   -0.16907E-05  1333   0.439E-03    0.129E-02
RMM:   5    -0.116452518831E+04   -0.71423E-06   -0.42887E-06  1101   0.233E-03
  11 F= -.11645252E+04 E0= -.11645221E+04  d E =-.517055E-02  mag=     3.0813
       N       E                     dE             d eps       ncg     rms          rms(c)
DAV:   1    -0.116449122422E+04    0.33963E-01   -0.32270E+00  1760   0.349E+00    0.819E-01
RMM:   2    -0.116452020079E+04   -0.28977E-01   -0.26920E-01  1590   0.499E-01    0.521E-01
RMM:   3    -0.116452911899E+04   -0.89182E-02   -0.66925E-02  1641   0.189E-01    0.255E-01
RMM:   4    -0.116452949574E+04   -0.37675E-03   -0.40002E-03  1920   0.649E-02    0.215E-01
RMM:   5    -0.116452939190E+04    0.10384E-03   -0.10639E-03  1578   0.388E-02    0.103E-01
RMM:   6    -0.116452939227E+04   -0.37660E-06   -0.46964E-04  1590   0.272E-02    0.568E-02
RMM:   7    -0.116452944281E+04   -0.50537E-04   -0.98923E-05  1675   0.133E-02    0.350E-02
RMM:   8    -0.116452946169E+04   -0.18877E-04   -0.43604E-05  1605   0.788E-03    0.230E-02
RMM:   9    -0.116452946232E+04   -0.62913E-06   -0.17914E-05  1584   0.516E-03    0.144E-02
RMM:  10    -0.116452946604E+04   -0.37283E-05   -0.53460E-06  1197   0.296E-03    0.952E-03
RMM:  11    -0.116452946659E+04   -0.54575E-06   -0.21880E-06  1071   0.175E-03
  12 F= -.11645295E+04 E0= -.11645259E+04  d E =-.427828E-02  mag=     3.0972
       N       E                     dE             d eps       ncg     rms          rms(c)
DAV:   1    -0.116452920926E+04    0.25678E-03   -0.30562E-02  1888   0.336E-01    0.703E-02
RMM:   2    -0.116452942648E+04   -0.21722E-03   -0.20829E-03  1591   0.467E-02    0.473E-02
RMM:   3    -0.116452949627E+04   -0.69787E-04   -0.47212E-04  1643   0.177E-02    0.246E-02
RMM:   4    -0.116452950138E+04   -0.51136E-05   -0.34121E-05  1668   0.620E-03    0.190E-02
RMM:   5    -0.116452950186E+04   -0.47552E-06   -0.91618E-06  1309   0.345E-03
  13 F= -.11645295E+04 E0= -.11645259E+04  d E =-.431355E-02  mag=     3.0989
       N       E                     dE             d eps       ncg     rms          rms(c)
DAV:   1    -0.116450653687E+04    0.22965E-01   -0.26560E+00  1824   0.312E+00    0.657E-01
RMM:   2    -0.116452655908E+04   -0.20022E-01   -0.18458E-01  1594   0.433E-01    0.443E-01
RMM:   3    -0.116453227954E+04   -0.57205E-02   -0.41987E-02  1644   0.163E-01    0.228E-01
RMM:   4    -0.116453259482E+04   -0.31528E-03   -0.26479E-03  1874   0.559E-02    0.176E-01
RMM:   5    -0.116453255019E+04    0.44633E-04   -0.60633E-04  1582   0.305E-02    0.101E-01
RMM:   6    -0.116453254990E+04    0.28971E-06   -0.29865E-04  1585   0.231E-02    0.532E-02
RMM:   7    -0.116453259419E+04   -0.44293E-04   -0.85765E-05  1693   0.135E-02    0.260E-02
RMM:   8    -0.116453259206E+04    0.21330E-05   -0.16532E-05  1731   0.574E-03    0.209E-02
RMM:   9    -0.116453259491E+04   -0.28522E-05   -0.33671E-05  1554   0.681E-03    0.952E-03
RMM:  10    -0.116453259747E+04   -0.25560E-05   -0.51480E-06  1294   0.326E-03    0.547E-03
RMM:  11    -0.116453259745E+04    0.14032E-07   -0.10582E-06  1054   0.132E-03
  14 F= -.11645326E+04 E0= -.11645285E+04  d E =-.309559E-02  mag=     3.1162
       N       E                     dE             d eps       ncg     rms          rms(c)
DAV:   1    -0.116453251145E+04    0.86016E-04   -0.10245E-02  1952   0.193E-01    0.410E-02
RMM:   2    -0.116453258347E+04   -0.72018E-04   -0.70683E-04  1591   0.269E-02    0.275E-02
RMM:   3    -0.116453260831E+04   -0.24837E-04   -0.15989E-04  1620   0.102E-02    0.138E-02
RMM:   4    -0.116453261077E+04   -0.24607E-05   -0.11865E-05  1230   0.364E-03    0.104E-02
RMM:   5    -0.116453261141E+04   -0.64533E-06   -0.31709E-06  1077   0.201E-03
  15 F= -.11645326E+04 E0= -.11645285E+04  d E =-.310955E-02  mag=     3.1173
       N       E                     dE             d eps       ncg     rms          rms(c)
DAV:   1    -0.116452194480E+04    0.10666E-01   -0.13422E+00  1792   0.221E+00    0.460E-01
RMM:   2    -0.116453171416E+04   -0.97694E-02   -0.90515E-02  1597   0.305E-01    0.312E-01
RMM:   3    -0.116453454597E+04   -0.28318E-02   -0.20509E-02  1647   0.115E-01    0.160E-01
RMM:   4    -0.116453469762E+04   -0.15165E-03   -0.12723E-03  1871   0.392E-02    0.123E-01
RMM:   5    -0.116453467454E+04    0.23079E-04   -0.29495E-04  1578   0.218E-02    0.698E-02
RMM:   6    -0.116453468148E+04   -0.69450E-05   -0.15020E-04  1586   0.164E-02    0.351E-02
RMM:   7    -0.116453470274E+04   -0.21261E-04   -0.39966E-05  1717   0.912E-03    0.182E-02
RMM:   8    -0.116453470140E+04    0.13386E-05   -0.75152E-06  1484   0.395E-03    0.141E-02
RMM:   9    -0.116453470523E+04   -0.38215E-05   -0.14789E-05  1513   0.466E-03    0.566E-03
RMM:  10    -0.116453470612E+04   -0.89245E-06   -0.21234E-06  1050   0.217E-03
  16 F= -.11645347E+04 E0= -.11645302E+04  d E =-.209471E-02  mag=     3.1296
       N       E                     dE             d eps       ncg     rms          rms(c)
DAV:   1    -0.116453404971E+04    0.65551E-03   -0.75617E-02  1856   0.524E-01    0.110E-01
RMM:   2    -0.116453458530E+04   -0.53558E-03   -0.50880E-03  1597   0.723E-02    0.742E-02
RMM:   3    -0.116453475133E+04   -0.16603E-03   -0.11472E-03  1644   0.273E-02    0.372E-02
RMM:   4    -0.116453476392E+04   -0.12589E-04   -0.82489E-05  1807   0.946E-03    0.288E-02
RMM:   5    -0.116453476469E+04   -0.77302E-06   -0.19062E-05  1508   0.531E-03    0.165E-02
RMM:   6    -0.116453476635E+04   -0.16541E-05   -0.82108E-06  1495   0.382E-03    0.873E-03
RMM:   7    -0.116453476896E+04   -0.26123E-05   -0.26638E-06  1080   0.236E-03    0.448E-03
RMM:   8    -0.116453476882E+04    0.13998E-06   -0.48431E-07  1024   0.118E-03
  17 F= -.11645348E+04 E0= -.11645302E+04  d E =-.215741E-02  mag=     3.1327
       N       E                     dE             d eps       ncg     rms          rms(c)
DAV:   1    -0.116452768012E+04    0.70888E-02   -0.99421E-01  1792   0.190E+00    0.386E-01
RMM:   2    -0.116453451612E+04   -0.68360E-02   -0.63757E-02  1600   0.260E-01    0.262E-01
RMM:   3    -0.116453647706E+04   -0.19609E-02   -0.14481E-02  1642   0.987E-02    0.135E-01
RMM:   4    -0.116453657479E+04   -0.97728E-04   -0.92153E-04  1857   0.342E-02    0.105E-01
RMM:   5    -0.116453655082E+04    0.23964E-04   -0.23168E-04  1570   0.195E-02    0.584E-02
RMM:   6    -0.116453655984E+04   -0.90146E-05   -0.11476E-04  1576   0.144E-02    0.298E-02
RMM:   7    -0.116453657899E+04   -0.19150E-04   -0.32129E-05  1704   0.819E-03    0.153E-02
RMM:   8    -0.116453657819E+04    0.80089E-06   -0.58576E-06  1320   0.354E-03
  18 F= -.11645366E+04 E0= -.11645318E+04  d E =-.180937E-02  mag=     3.1409
       N       E                     dE             d eps       ncg     rms          rms(c)
DAV:   1    -0.116453542694E+04    0.11520E-02   -0.16159E-01  1824   0.766E-01    0.155E-01
RMM:   2    -0.116453651163E+04   -0.10847E-02   -0.10344E-02  1600   0.105E-01    0.106E-01
RMM:   3    -0.116453683646E+04   -0.32482E-03   -0.23260E-03  1640   0.402E-02    0.560E-02
RMM:   4    -0.116453686059E+04   -0.24139E-04   -0.17859E-04  1825   0.142E-02    0.437E-02
RMM:   5    -0.116453685861E+04    0.19811E-05   -0.41890E-05  1566   0.827E-03    0.246E-02
RMM:   6    -0.116453686147E+04   -0.28594E-05   -0.20358E-05  1569   0.604E-03    0.131E-02
RMM:   7    -0.116453686647E+04   -0.50006E-05   -0.63515E-06  1346   0.357E-03    0.677E-03
RMM:   8    -0.116453686628E+04    0.19762E-06   -0.10498E-06  1039   0.159E-03
  19 F= -.11645369E+04 E0= -.11645320E+04  d E =-.209746E-02  mag=     3.1442
       N       E                     dE             d eps       ncg     rms          rms(c)
DAV:   1    -0.116453098039E+04    0.58861E-02   -0.64531E-01  1760   0.153E+00    0.310E-01
RMM:   2    -0.116453537012E+04   -0.43897E-02   -0.41181E-02  1600   0.209E-01    0.211E-01
RMM:   3    -0.116453665172E+04   -0.12816E-02   -0.92964E-03  1644   0.795E-02    0.108E-01
RMM:   4    -0.116453671549E+04   -0.63769E-04   -0.60956E-04  1853   0.276E-02    0.840E-02
RMM:   5    -0.116453670156E+04    0.13932E-04   -0.15263E-04  1569   0.158E-02    0.469E-02
RMM:   6    -0.116453670754E+04   -0.59765E-05   -0.75660E-05  1577   0.117E-02    0.241E-02
RMM:   7    -0.116453672074E+04   -0.13207E-04   -0.21317E-05  1683   0.660E-03    0.124E-02
RMM:   8    -0.116453672008E+04    0.65949E-06   -0.36971E-06  1147   0.287E-03
  20 F= -.11645367E+04 E0= -.11645317E+04  d E =-.195127E-02  mag=     3.1512
       N       E                     dE             d eps       ncg     rms          rms(c)
DAV:   1    -0.116453437542E+04    0.23453E-02   -0.28720E-01  1792   0.102E+00    0.207E-01
RMM:   2    -0.116453632364E+04   -0.19482E-02   -0.18246E-02  1593   0.139E-01    0.140E-01
RMM:   3    -0.116453688581E+04   -0.56217E-03   -0.40623E-03  1635   0.523E-02    0.703E-02
RMM:   4    -0.116453691909E+04   -0.33280E-04   -0.27704E-04  1843   0.183E-02    0.544E-02
RMM:   5    -0.116453691349E+04    0.55971E-05   -0.64063E-05  1567   0.103E-02    0.303E-02
RMM:   6    -0.116453691558E+04   -0.20846E-05   -0.30703E-05  1570   0.744E-03    0.157E-02
RMM:   7    -0.116453692225E+04   -0.66704E-05   -0.94642E-06  1586   0.439E-03    0.775E-03
RMM:   8    -0.116453692227E+04   -0.21042E-07   -0.16261E-06  1055   0.197E-03
  21 F= -.11645369E+04 E0= -.11645320E+04  d E =-.215345E-02  mag=     3.1464
       N       E                     dE             d eps       ncg     rms          rms(c)
DAV:   1    -0.116452938849E+04    0.75338E-02   -0.11573E+00  1760   0.207E+00    0.400E-01
RMM:   2    -0.116453663295E+04   -0.72445E-02   -0.68393E-02  1596   0.280E-01    0.274E-01
RMM:   3    -0.116453866430E+04   -0.20313E-02   -0.15442E-02  1636   0.108E-01    0.145E-01
RMM:   4    -0.116453875372E+04   -0.89424E-04   -0.10893E-03  1839   0.384E-02    0.112E-01
RMM:   5    -0.116453870694E+04    0.46779E-04   -0.29153E-04  1559   0.226E-02    0.620E-02
RMM:   6    -0.116453871637E+04   -0.94230E-05   -0.15511E-04  1571   0.170E-02    0.316E-02
RMM:   7    -0.116453873734E+04   -0.20972E-04   -0.42680E-05  1744   0.937E-03    0.168E-02
RMM:   8    -0.116453873560E+04    0.17345E-05   -0.71694E-06  1466   0.392E-03    0.134E-02
RMM:   9    -0.116453873748E+04   -0.18784E-05   -0.15853E-05  1511   0.473E-03    0.570E-03
RMM:  10    -0.116453873810E+04   -0.61440E-06   -0.20572E-06  1052   0.220E-03
  22 F= -.11645387E+04 E0= -.11645336E+04  d E =-.181583E-02  mag=     3.1567
