       N       E                     dE             d eps       ncg     rms          rms(c)
DAV:   1     0.509583268444E+04    0.50958E+04   -0.17210E+05  1736   0.993E+02
DAV:   2     0.815794897026E+02   -0.50143E+04   -0.45669E+04  2272   0.228E+02
DAV:   3    -0.117285728751E+04   -0.12544E+04   -0.12459E+04  1920   0.122E+02
DAV:   4    -0.123253762566E+04   -0.59680E+02   -0.59058E+02  1848   0.347E+01
DAV:   5    -0.123434022088E+04   -0.18026E+01   -0.17923E+01  2240   0.515E+00    0.624E+01
RMM:   6    -0.121907624468E+04    0.15264E+02   -0.72215E+00  1457   0.355E+00    0.512E+01
RMM:   7    -0.117763462989E+04    0.41442E+02   -0.89585E+01  1482   0.116E+01    0.293E+01
RMM:   8    -0.117079213557E+04    0.68425E+01   -0.12475E+01  1516   0.566E+00    0.242E+01
RMM:   9    -0.116713894871E+04    0.36532E+01   -0.30390E+01  1479   0.722E+00    0.125E+01
RMM:  10    -0.116744705185E+04   -0.30810E+00   -0.94676E+00  1512   0.446E+00    0.876E+00
RMM:  11    -0.116711219263E+04    0.33486E+00   -0.11149E+00  1613   0.169E+00    0.774E+00
RMM:  12    -0.116496407699E+04    0.21481E+01   -0.17641E+00  1530   0.155E+00    0.484E+00
RMM:  13    -0.116193343342E+04    0.30306E+01   -0.24388E+00  1571   0.192E+00    0.246E+00
RMM:  14    -0.116331385791E+04   -0.13804E+01   -0.26850E-01  1590   0.836E-01    0.163E+00
RMM:  15    -0.116586627823E+04   -0.25524E+01   -0.11587E+00  1627   0.901E-01    0.168E+00
RMM:  16    -0.116590814211E+04   -0.41864E-01   -0.64875E-02  1699   0.303E-01    0.103E+00
RMM:  17    -0.116599357206E+04   -0.85430E-01   -0.17001E-01  1470   0.268E-01    0.682E-01
RMM:  18    -0.116600208946E+04   -0.85174E-02   -0.39639E-02  1547   0.174E-01    0.775E-01
RMM:  19    -0.116599949678E+04    0.25927E-02   -0.64626E-03  1234   0.825E-02    0.494E-01
RMM:  20    -0.116599978457E+04   -0.28779E-03   -0.57880E-03  1245   0.885E-02
   1 F= -.11730616E+04 E0= -.11730476E+04  d E =-.117306E+04  mag=     1.0490
       N       E                     dE             d eps       ncg     rms          rms(c)
DAV:   1    -0.116600191717E+04   -0.24204E-02   -0.17113E-02  1600   0.221E-01    0.357E-01
RMM:   2    -0.116599007172E+04    0.11845E-01   -0.16301E-02  1035   0.102E-01    0.184E-01
RMM:   3    -0.116597815311E+04    0.11919E-01   -0.10823E-02  1001   0.726E-02    0.146E-01
RMM:   4    -0.116595396556E+04    0.24188E-01   -0.19478E-02  1027   0.102E-01    0.812E-02
RMM:   5    -0.116599511583E+04   -0.41150E-01   -0.33438E-02   995   0.116E-01    0.665E-02
RMM:   6    -0.116599564952E+04   -0.53369E-03   -0.14633E-03   696   0.309E-02
   2 F= -.11730574E+04 E0= -.11730434E+04  d E =0.416120E-02  mag=     1.1671
       N       E                     dE             d eps       ncg     rms          rms(c)
DAV:   1    -0.116599413232E+04    0.98351E-03   -0.86871E-04  1128   0.428E-02    0.747E-02
RMM:   2    -0.116599869341E+04   -0.45611E-02   -0.45632E-03   714   0.428E-02    0.103E-01
RMM:   3    -0.116599804528E+04    0.64813E-03   -0.51472E-04   506   0.187E-02
   3 F= -.11730598E+04 E0= -.11730457E+04  d E =0.176979E-02  mag=     1.1519
       N       E                     dE             d eps       ncg     rms          rms(c)
DAV:   1    -0.116600035758E+04   -0.16642E-02   -0.12802E-02  1592   0.173E-01    0.105E-01
RMM:   2    -0.116600094223E+04   -0.58465E-03   -0.57658E-04   874   0.295E-02
   4 F= -.11730627E+04 E0= -.11730486E+04  d E =-.293270E-02  mag=     1.1374
