       N       E                     dE             d eps       ncg     rms          rms(c)
DAV:   1     0.495932155074E+04    0.49593E+04   -0.16968E+05  1800   0.908E+02
DAV:   2    -0.477254031331E+02   -0.50070E+04   -0.45585E+04  2520   0.209E+02
DAV:   3    -0.119205286061E+04   -0.11443E+04   -0.11391E+04  2160   0.111E+02
DAV:   4    -0.123716214536E+04   -0.45109E+02   -0.44888E+02  2016   0.288E+01
DAV:   5    -0.123835711504E+04   -0.11950E+01   -0.11929E+01  2376   0.447E+00    0.676E+01
RMM:   6    -0.121825200026E+04    0.20105E+02   -0.27261E+01  1584   0.494E+00    0.559E+01
RMM:   7    -0.120363997887E+04    0.14612E+02   -0.83521E+00  1584   0.324E+00    0.426E+01
RMM:   8    -0.118243849073E+04    0.21201E+02   -0.20055E+01  1584   0.515E+00    0.304E+01
RMM:   9    -0.116851271868E+04    0.13926E+02   -0.22885E+01  1584   0.547E+00    0.210E+01
RMM:  10    -0.116763596624E+04    0.87675E+00   -0.16881E+01  1584   0.465E+00    0.110E+01
RMM:  11    -0.116824289910E+04   -0.60693E+00   -0.17006E+00  1601   0.159E+00    0.713E+00
RMM:  12    -0.116769719616E+04    0.54570E+00   -0.12969E+00  1584   0.119E+00    0.378E+00
RMM:  13    -0.116746924095E+04    0.22796E+00   -0.25229E-01  1584   0.557E-01    0.165E+00
RMM:  14    -0.116744666337E+04    0.22578E-01   -0.81589E-02  1584   0.309E-01    0.874E-01
RMM:  15    -0.116744447427E+04    0.21891E-02   -0.29810E-02  1590   0.199E-01    0.268E-01
RMM:  16    -0.116744468208E+04   -0.20780E-03   -0.24361E-03  1619   0.611E-02    0.185E-01
RMM:  17    -0.116744487485E+04   -0.19277E-03   -0.11776E-03  1510   0.393E-02    0.109E-01
RMM:  18    -0.116744492450E+04   -0.49654E-04   -0.27395E-04  1138   0.219E-02
   1 F= -.11747502E+04 E0= -.11747502E+04  d E =-.117475E+04  mag=     0.9991
       N       E                     dE             d eps       ncg     rms          rms(c)
DAV:   1    -0.116744315500E+04    0.17198E-02   -0.12891E+00  1620   0.155E+00    0.627E-01
RMM:   2    -0.116744533249E+04   -0.21775E-02   -0.30876E-02  1584   0.212E-01    0.593E-01
RMM:   3    -0.116744514242E+04    0.19006E-03   -0.17021E-03  1535   0.465E-02    0.536E-01
RMM:   4    -0.116744427210E+04    0.87033E-03   -0.38566E-03  1584   0.713E-02    0.226E-01
RMM:   5    -0.116744445732E+04   -0.18522E-03   -0.21616E-04  1105   0.198E-02    0.134E-01
RMM:   6    -0.116744456411E+04   -0.10679E-03   -0.15402E-04  1052   0.168E-02    0.393E-02
RMM:   7    -0.116744453001E+04    0.34094E-04   -0.33587E-05  1003   0.802E-03
   2 F= -.11747508E+04 E0= -.11747508E+04  d E =-.548604E-03  mag=     1.0000
       N       E                     dE             d eps       ncg     rms          rms(c)
DAV:   1    -0.116744633900E+04   -0.17749E-02   -0.30144E-01  1656   0.750E-01    0.300E-01
RMM:   2    -0.116744671339E+04   -0.37439E-03   -0.66750E-03  1584   0.994E-02    0.288E-01
RMM:   3    -0.116744664549E+04    0.67901E-04   -0.33017E-04  1134   0.209E-02
   3 F= -.11747524E+04 E0= -.11747524E+04  d E =-.220468E-02  mag=     1.0000
       N       E                     dE             d eps       ncg     rms          rms(c)
DAV:   1    -0.116744523584E+04    0.14776E-02   -0.76660E-01  1656   0.124E+00    0.367E-01
RMM:   2    -0.116744659029E+04   -0.13545E-02   -0.15454E-02  1584   0.155E-01    0.320E-01
RMM:   3    -0.116744662991E+04   -0.39615E-04   -0.73494E-04  1302   0.341E-02
   4 F= -.11747524E+04 E0= -.11747524E+04  d E =0.219546E-05  mag=     1.0000
       N       E                     dE             d eps       ncg     rms          rms(c)
DAV:   1    -0.116744680724E+04   -0.21694E-03   -0.15272E-01  1728   0.556E-01    0.138E-01
RMM:   2    -0.116744715842E+04   -0.35118E-03   -0.31946E-03  1584   0.754E-02    0.932E-02
RMM:   3    -0.116744723912E+04   -0.80701E-04   -0.14978E-04  1048   0.166E-02
   5 F= -.11747530E+04 E0= -.11747530E+04  d E =-.600399E-03  mag=     1.0000
