       N       E                     dE             d eps       ncg     rms          rms(c)
DAV:   1     0.458079161331E+04    0.45808E+04   -0.17551E+05  1944   0.910E+02
DAV:   2    -0.116410420263E+03   -0.46972E+04   -0.42743E+04  2520   0.204E+02
DAV:   3    -0.119242537236E+04   -0.10760E+04   -0.10717E+04  2160   0.105E+02
DAV:   4    -0.123629002682E+04   -0.43865E+02   -0.43610E+02  2088   0.275E+01
DAV:   5    -0.123739951402E+04   -0.11095E+01   -0.11065E+01  2376   0.384E+00    0.760E+01
RMM:   6    -0.122297258195E+04    0.14427E+02   -0.85539E+00  1584   0.312E+00    0.640E+01
RMM:   7    -0.117967166169E+04    0.43301E+02   -0.83801E+01  1584   0.992E+00    0.347E+01
RMM:   8    -0.117604309697E+04    0.36286E+01   -0.88261E+00  1608   0.287E+00    0.335E+01
RMM:   9    -0.117510616637E+04    0.93693E+00   -0.50278E+01  1584   0.762E+00    0.209E+01
RMM:  10    -0.117405656094E+04    0.10496E+01   -0.20957E+00  1622   0.177E+00    0.170E+01
RMM:  11    -0.117111060023E+04    0.29460E+01   -0.48052E+00  1584   0.138E+00    0.728E+00
RMM:  12    -0.117044385235E+04    0.66675E+00   -0.54039E-01  1609   0.720E-01    0.518E+00
RMM:  13    -0.116992715562E+04    0.51670E+00   -0.12096E+00  1591   0.110E+00    0.228E+00
RMM:  14    -0.116989556857E+04    0.31587E-01   -0.21239E-01  1605   0.486E-01    0.282E+00
RMM:  15    -0.116987440285E+04    0.21166E-01   -0.48938E-02  1669   0.153E-01    0.148E+00
RMM:  16    -0.116988602376E+04   -0.11621E-01   -0.12411E-01  1584   0.284E-01    0.934E-01
RMM:  17    -0.116987280442E+04    0.13219E-01   -0.49738E-02  1587   0.170E-01    0.899E-01
RMM:  18    -0.116987256236E+04    0.24206E-03   -0.19699E-03  1286   0.317E-02    0.920E-01
RMM:  19    -0.116987194401E+04    0.61835E-03   -0.45255E-04  1237   0.219E-02    0.754E-01
RMM:  20    -0.116986899366E+04    0.29504E-02   -0.64547E-03  1590   0.573E-02    0.238E-01
RMM:  21    -0.116986826648E+04    0.72719E-03   -0.16662E-03  1193   0.227E-02    0.197E-01
RMM:  22    -0.116986813197E+04    0.13451E-03   -0.32374E-04  1069   0.161E-02    0.849E-02
RMM:  23    -0.116986806722E+04    0.64747E-04   -0.96518E-05  1053   0.946E-03
   1 F= -.11770375E+04 E0= -.11770322E+04  d E =-.117704E+04  mag=    -0.8312
       N       E                     dE             d eps       ncg     rms          rms(c)
DAV:   1    -0.116981629810E+04    0.51834E-01   -0.10311E+01  1584   0.221E+00    0.729E+00
RMM:   2    -0.116984479704E+04   -0.28499E-01   -0.35438E-01  1638   0.354E-01    0.726E+00
RMM:   3    -0.116984002308E+04    0.47740E-02   -0.11257E-02  1671   0.686E-02    0.678E+00
RMM:   4    -0.116984187204E+04   -0.18490E-02   -0.12258E-01  1609   0.211E-01    0.135E+00
RMM:   5    -0.116983617345E+04    0.56986E-02   -0.31089E-03  1303   0.406E-02    0.527E-01
RMM:   6    -0.116983337469E+04    0.27988E-02   -0.13860E-02  1560   0.744E-02    0.165E-01
RMM:   7    -0.116983281205E+04    0.56264E-03   -0.58766E-04  1083   0.164E-02    0.141E-01
RMM:   8    -0.116983267675E+04    0.13530E-03   -0.32702E-04  1064   0.113E-02    0.608E-02
RMM:   9    -0.116983261851E+04    0.58238E-04   -0.12670E-04  1043   0.843E-03
   2 F= -.11770066E+04 E0= -.11770016E+04  d E =0.308641E-01  mag=    -0.8501
       N       E                     dE             d eps       ncg     rms          rms(c)
DAV:   1    -0.116986838850E+04   -0.35712E-01   -0.45688E+00  1656   0.151E+00    0.510E+00
RMM:   2    -0.116988106308E+04   -0.12675E-01   -0.16024E-01  1630   0.234E-01    0.492E+00
RMM:   3    -0.116987609650E+04    0.49666E-02   -0.13600E-02  1665   0.747E-02    0.298E+00
RMM:   4    -0.116987873737E+04   -0.26409E-02   -0.17967E-02  1641   0.815E-02    0.410E-01
RMM:   5    -0.116987630032E+04    0.24371E-02   -0.27220E-03  1422   0.309E-02    0.248E-01
RMM:   6    -0.116987552776E+04    0.77256E-03   -0.19473E-03  1440   0.314E-02    0.106E-01
RMM:   7    -0.116987547558E+04    0.52181E-04   -0.21657E-04  1055   0.111E-02
   3 F= -.11770464E+04 E0= -.11770412E+04  d E =-.894789E-02  mag=    -0.8433
