       N       E                     dE             d eps       ncg     rms          rms(c)
DAV:   1     0.489741291591E+04    0.48974E+04   -0.16793E+05  1800   0.901E+02
DAV:   2    -0.504808280526E+02   -0.49479E+04   -0.44916E+04  2520   0.208E+02
DAV:   3    -0.117411568953E+04   -0.11236E+04   -0.11177E+04  2124   0.110E+02
DAV:   4    -0.122061615266E+04   -0.46500E+02   -0.46300E+02  2016   0.293E+01
DAV:   5    -0.122181357306E+04   -0.11974E+01   -0.11955E+01  2376   0.441E+00    0.602E+01
RMM:   6    -0.120877779587E+04    0.13036E+02   -0.85431E+00  1586   0.373E+00    0.484E+01
RMM:   7    -0.117580835497E+04    0.32969E+02   -0.41269E+01  1584   0.750E+00    0.308E+01
RMM:   8    -0.116052863938E+04    0.15280E+02   -0.26735E+01  1584   0.593E+00    0.204E+01
RMM:   9    -0.115935979257E+04    0.11688E+01   -0.21733E+01  1584   0.547E+00    0.978E+00
RMM:  10    -0.115952220795E+04   -0.16242E+00   -0.12371E+00  1624   0.142E+00    0.695E+00
RMM:  11    -0.115931616692E+04    0.20604E+00   -0.15208E-01  1584   0.501E-01    0.471E+00
RMM:  12    -0.115886624397E+04    0.44992E+00   -0.15457E+00  1584   0.135E+00    0.926E-01
RMM:  13    -0.115886315017E+04    0.30938E-02   -0.73819E-02  1604   0.332E-01    0.394E-01
RMM:  14    -0.115886280460E+04    0.34556E-03   -0.87043E-03  1591   0.101E-01    0.233E-01
RMM:  15    -0.115886374189E+04   -0.93728E-03   -0.34536E-03  1596   0.699E-02    0.168E-01
RMM:  16    -0.115886395319E+04   -0.21130E-03   -0.76809E-04  1450   0.327E-02    0.126E-01
RMM:  17    -0.115886425447E+04   -0.30128E-03   -0.49432E-04  1327   0.311E-02    0.958E-02
RMM:  18    -0.115886476720E+04   -0.51274E-03   -0.69819E-04  1415   0.350E-02    0.942E-02
RMM:  19    -0.115886528129E+04   -0.51409E-03   -0.53457E-04  1315   0.291E-02    0.893E-02
RMM:  20    -0.115886518098E+04    0.10032E-03   -0.38393E-05  1033   0.116E-02    0.930E-02
RMM:  21    -0.115886575002E+04   -0.56905E-03   -0.46822E-04  1314   0.285E-02    0.823E-02
RMM:  22    -0.115886592570E+04   -0.17568E-03   -0.21739E-03  1584   0.594E-02    0.536E-02
RMM:  23    -0.115886648611E+04   -0.56041E-03   -0.19126E-04  1135   0.175E-02    0.432E-02
RMM:  24    -0.115886647999E+04    0.61255E-05   -0.40032E-05  1032   0.950E-03
   1 F= -.11659026E+04 E0= -.11658963E+04  d E =-.116590E+04  mag=    -0.8017
       N       E                     dE             d eps       ncg     rms          rms(c)
DAV:   1    -0.115886769519E+04   -0.12091E-02   -0.29931E-01  1764   0.868E-01    0.198E-01
RMM:   2    -0.115886814985E+04   -0.45466E-03   -0.97277E-03  1584   0.132E-01    0.184E-01
RMM:   3    -0.115886761954E+04    0.53030E-03   -0.66591E-04  1512   0.339E-02    0.156E-01
RMM:   4    -0.115886665571E+04    0.96384E-03   -0.45535E-03  1584   0.732E-02    0.599E-02
RMM:   5    -0.115886668632E+04   -0.30615E-04   -0.83159E-05  1046   0.144E-02
   2 F= -.11659030E+04 E0= -.11658974E+04  d E =-.434536E-03  mag=    -0.8320
       N       E                     dE             d eps       ncg     rms          rms(c)
DAV:   1    -0.115886774062E+04   -0.10849E-02   -0.61763E-02  1656   0.392E-01    0.816E-02
RMM:   2    -0.115886772443E+04    0.16182E-04   -0.12629E-03  1584   0.526E-02    0.752E-02
RMM:   3    -0.115886756129E+04    0.16314E-03   -0.10695E-04  1012   0.143E-02    0.581E-02
RMM:   4    -0.115886739574E+04    0.16556E-03   -0.78374E-04  1577   0.303E-02    0.215E-02
RMM:   5    -0.115886739688E+04   -0.11372E-05   -0.14336E-05  1001   0.635E-03
   3 F= -.11659036E+04 E0= -.11658982E+04  d E =-.103918E-02  mag=    -0.8357
       N       E                     dE             d eps       ncg     rms          rms(c)
DAV:   1    -0.115886858723E+04   -0.11915E-02   -0.21155E-01  1800   0.718E-01    0.155E-01
RMM:   2    -0.115886853722E+04    0.50006E-04   -0.38561E-03  1584   0.949E-02    0.142E-01
RMM:   3    -0.115886806491E+04    0.47231E-03   -0.32631E-04  1215   0.245E-02    0.112E-01
RMM:   4    -0.115886758046E+04    0.48446E-03   -0.23423E-03  1584   0.528E-02    0.407E-02
RMM:   5    -0.115886755387E+04    0.26586E-04   -0.36614E-05  1009   0.975E-03
   4 F= -.11659040E+04 E0= -.11658987E+04  d E =-.422489E-03  mag=    -0.8363
       N       E                     dE             d eps       ncg     rms          rms(c)
DAV:   1    -0.115886796393E+04   -0.38347E-03   -0.27070E-02  1728   0.257E-01    0.526E-02
RMM:   2    -0.115886794359E+04    0.20338E-04   -0.40761E-04  1262   0.313E-02
   5 F= -.11659043E+04 E0= -.11658990E+04  d E =-.715409E-03  mag=    -0.8363
