       N       E                     dE             d eps       ncg     rms          rms(c)
DAV:   1     0.491982925059E+04    0.49198E+04   -0.17551E+05  1872   0.920E+02
DAV:   2    -0.642416995670E+02   -0.49841E+04   -0.45630E+04  2520   0.208E+02
DAV:   3    -0.119872929505E+04   -0.11345E+04   -0.11291E+04  2052   0.110E+02
DAV:   4    -0.124538537155E+04   -0.46656E+02   -0.46415E+02  2016   0.296E+01
DAV:   5    -0.124657750328E+04   -0.11921E+01   -0.11897E+01  2340   0.435E+00    0.681E+01
RMM:   6    -0.122838518083E+04    0.18192E+02   -0.25492E+01  1584   0.492E+00    0.532E+01
RMM:   7    -0.121295518740E+04    0.15430E+02   -0.95354E+00  1584   0.351E+00    0.420E+01
RMM:   8    -0.118550498537E+04    0.27450E+02   -0.35869E+01  1584   0.685E+00    0.265E+01
RMM:   9    -0.117638033813E+04    0.91246E+01   -0.20214E+01  1584   0.513E+00    0.178E+01
RMM:  10    -0.117753220492E+04   -0.11519E+01   -0.15679E+01  1584   0.450E+00    0.869E+00
RMM:  11    -0.117717431186E+04    0.35789E+00   -0.10828E+00  1620   0.116E+00    0.631E+00
RMM:  12    -0.117655405584E+04    0.62026E+00   -0.17700E+00  1584   0.148E+00    0.238E+00
RMM:  13    -0.117635629811E+04    0.19776E+00   -0.11574E-01  1602   0.348E-01    0.153E+00
RMM:  14    -0.117632232116E+04    0.33977E-01   -0.11330E-01  1584   0.331E-01    0.674E-01
RMM:  15    -0.117632434736E+04   -0.20262E-02   -0.17692E-02  1584   0.158E-01    0.492E-01
RMM:  16    -0.117632276586E+04    0.15815E-02   -0.36914E-03  1585   0.706E-02    0.343E-01
RMM:  17    -0.117632219223E+04    0.57363E-03   -0.28214E-03  1585   0.562E-02    0.159E-01
RMM:  18    -0.117632207855E+04    0.11368E-03   -0.40395E-04  1244   0.240E-02    0.122E-01
RMM:  19    -0.117632198946E+04    0.89090E-04   -0.23275E-04  1144   0.184E-02
   1 F= -.11835034E+04 E0= -.11835034E+04  d E =-.118350E+04  mag=     0.0002
       N       E                     dE             d eps       ncg     rms          rms(c)
DAV:   1    -0.117631682806E+04    0.52505E-02   -0.17252E+00  1692   0.193E+00    0.522E-01
RMM:   2    -0.117632111568E+04   -0.42876E-02   -0.57226E-02  1584   0.299E-01    0.522E-01
RMM:   3    -0.117632058868E+04    0.52700E-03   -0.25309E-03  1670   0.557E-02    0.502E-01
RMM:   4    -0.117631944785E+04    0.11408E-02   -0.25945E-03  1582   0.553E-02    0.294E-01
RMM:   5    -0.117631977417E+04   -0.32632E-03   -0.30240E-03  1585   0.596E-02    0.104E-01
RMM:   6    -0.117631952614E+04    0.24803E-03   -0.13948E-04  1058   0.148E-02    0.712E-02
RMM:   7    -0.117631943981E+04    0.86331E-04   -0.59248E-04  1438   0.246E-02
   2 F= -.11835019E+04 E0= -.11835019E+04  d E =0.152651E-02  mag=     0.0000
       N       E                     dE             d eps       ncg     rms          rms(c)
DAV:   1    -0.117632299891E+04   -0.34728E-02   -0.58325E-01  1656   0.112E+00    0.300E-01
RMM:   2    -0.117632423625E+04   -0.12373E-02   -0.17598E-02  1584   0.171E-01    0.303E-01
RMM:   3    -0.117632403760E+04    0.19865E-03   -0.61704E-04  1251   0.292E-02    0.294E-01
RMM:   4    -0.117632357850E+04    0.45910E-03   -0.90182E-04  1510   0.332E-02    0.175E-01
RMM:   5    -0.117632367087E+04   -0.92372E-04   -0.11093E-03  1546   0.362E-02    0.628E-02
RMM:   6    -0.117632358483E+04    0.86046E-04   -0.65198E-05  1017   0.100E-02
   3 F= -.11835054E+04 E0= -.11835054E+04  d E =-.202200E-02  mag=     0.0000
       N       E                     dE             d eps       ncg     rms          rms(c)
DAV:   1    -0.117632513124E+04   -0.14604E-02   -0.10285E+00  1728   0.141E+00    0.348E-01
RMM:   2    -0.117632669335E+04   -0.15621E-02   -0.21312E-02  1584   0.180E-01    0.328E-01
RMM:   3    -0.117632627013E+04    0.42322E-03   -0.69349E-04  1296   0.328E-02    0.289E-01
RMM:   4    -0.117632577879E+04    0.49134E-03   -0.41408E-03  1584   0.696E-02    0.652E-02
RMM:   5    -0.117632577701E+04    0.17867E-05   -0.10515E-04  1064   0.143E-02
   4 F= -.11835079E+04 E0= -.11835079E+04  d E =-.246344E-02  mag=     0.0000
       N       E                     dE             d eps       ncg     rms          rms(c)
DAV:   1    -0.117632571754E+04    0.61253E-04   -0.55690E-03  1800   0.106E-01    0.284E-02
RMM:   2    -0.117632572108E+04   -0.35439E-05   -0.11926E-04  1023   0.147E-02
   5 F= -.11835078E+04 E0= -.11835078E+04  d E =-.238675E-02  mag=     0.0000
       N       E                     dE             d eps       ncg     rms          rms(c)
DAV:   1    -0.117632542227E+04    0.29527E-03   -0.87643E-01  1728   0.143E+00    0.226E-01
RMM:   2    -0.117632746371E+04   -0.20414E-02   -0.23542E-02  1584   0.196E-01    0.188E-01
RMM:   3    -0.117632715614E+04    0.30757E-03   -0.77296E-04  1296   0.354E-02    0.161E-01
RMM:   4    -0.117632711640E+04    0.39739E-04   -0.13718E-03  1536   0.401E-02    0.576E-02
RMM:   5    -0.117632711187E+04    0.45267E-05   -0.64992E-05  1029   0.115E-02
   6 F= -.11835095E+04 E0= -.11835095E+04  d E =-.169088E-02  mag=     0.0000
       N       E                     dE             d eps       ncg     rms          rms(c)
DAV:   1    -0.117632711906E+04   -0.26637E-05   -0.85279E-04  1800   0.469E-02    0.211E-02
RMM:   2    -0.117632712090E+04   -0.18399E-05   -0.38564E-05   976   0.947E-03
   7 F= -.11835095E+04 E0= -.11835095E+04  d E =-.169078E-02  mag=     0.0000
       N       E                     dE             d eps       ncg     rms          rms(c)
DAV:   1    -0.117632748134E+04   -0.36228E-03   -0.39370E-01  1728   0.986E-01    0.127E-01
RMM:   2    -0.117632846547E+04   -0.98413E-03   -0.11367E-02  1584   0.137E-01    0.105E-01
RMM:   3    -0.117632832848E+04    0.13700E-03   -0.36493E-04  1194   0.244E-02    0.922E-02
RMM:   4    -0.117632834317E+04   -0.14697E-04   -0.42252E-04  1376   0.240E-02
   8 F= -.11835109E+04 E0= -.11835109E+04  d E =-.136599E-02  mag=    -0.0000
       N       E                     dE             d eps       ncg     rms          rms(c)
DAV:   1    -0.117632764888E+04    0.67959E-03   -0.41481E-01  1728   0.101E+00    0.137E-01
RMM:   2    -0.117632868973E+04   -0.10408E-02   -0.11973E-02  1584   0.140E-01    0.114E-01
RMM:   3    -0.117632856232E+04    0.12741E-03   -0.38753E-04  1206   0.250E-02    0.101E-01
RMM:   4    -0.117632861727E+04   -0.54943E-04   -0.35394E-04  1244   0.234E-02
   9 F= -.11835113E+04 E0= -.11835113E+04  d E =-.179053E-02  mag=     0.0000
       N       E                     dE             d eps       ncg     rms          rms(c)
DAV:   1    -0.117632926643E+04   -0.70410E-03   -0.25869E-01  1728   0.769E-01    0.996E-02
RMM:   2    -0.117632968951E+04   -0.42308E-03   -0.53592E-03  1584   0.993E-02    0.873E-02
RMM:   3    -0.117632964292E+04    0.46589E-04   -0.18489E-04  1128   0.192E-02
  10 F= -.11835123E+04 E0= -.11835123E+04  d E =-.104537E-02  mag=    -0.0000
       N       E                     dE             d eps       ncg     rms          rms(c)
DAV:   1    -0.117632802255E+04    0.16670E-02   -0.15183E+00  1584   0.186E+00    0.245E-01
RMM:   2    -0.117633058406E+04   -0.25615E-02   -0.30978E-02  1584   0.237E-01    0.215E-01
RMM:   3    -0.117633028765E+04    0.29641E-03   -0.13155E-03  1496   0.464E-02    0.192E-01
RMM:   4    -0.117633027696E+04    0.10691E-04   -0.21720E-03  1574   0.534E-02    0.494E-02
RMM:   5    -0.117633029166E+04   -0.14696E-04   -0.70543E-05  1058   0.122E-02
  11 F= -.11835130E+04 E0= -.11835130E+04  d E =-.175177E-02  mag=    -0.0000
       N       E                     dE             d eps       ncg     rms          rms(c)
DAV:   1    -0.117633128888E+04   -0.10119E-02   -0.18023E-01  1728   0.749E-01    0.109E-01
RMM:   2    -0.117633178848E+04   -0.49960E-03   -0.60369E-03  1596   0.115E-01    0.100E-01
RMM:   3    -0.117633169013E+04    0.98344E-04   -0.21063E-04  1120   0.204E-02
  12 F= -.11835143E+04 E0= -.11835143E+04  d E =-.128857E-02  mag=     0.0000
       N       E                     dE             d eps       ncg     rms          rms(c)
DAV:   1    -0.117633164889E+04    0.13959E-03   -0.72412E-03  1800   0.148E-01    0.342E-02
RMM:   2    -0.117633167899E+04   -0.30097E-04   -0.39815E-04  1246   0.321E-02
  13 F= -.11835143E+04 E0= -.11835143E+04  d E =-.129541E-02  mag=     0.0000
       N       E                     dE             d eps       ncg     rms          rms(c)
DAV:   1    -0.117633236836E+04   -0.71947E-03   -0.85064E-02  1728   0.478E-01    0.787E-02
RMM:   2    -0.117633261826E+04   -0.24991E-03   -0.29287E-03  1582   0.714E-02    0.662E-02
RMM:   3    -0.117633257976E+04    0.38497E-04   -0.83142E-05  1012   0.125E-02
  14 F= -.11835151E+04 E0= -.11835151E+04  d E =-.781999E-03  mag=    -0.0000
       N       E                     dE             d eps       ncg     rms          rms(c)
DAV:   1    -0.117633271555E+04   -0.97284E-04   -0.86597E-02  1728   0.483E-01    0.835E-02
RMM:   2    -0.117633295463E+04   -0.23908E-03   -0.28521E-03  1558   0.682E-02    0.723E-02
RMM:   3    -0.117633291550E+04    0.39129E-04   -0.85795E-05  1038   0.122E-02
  15 F= -.11835153E+04 E0= -.11835153E+04  d E =-.997169E-03  mag=     0.0000
