       N       E                     dE             d eps       ncg     rms          rms(c)
DAV:   1     0.486008205122E+04    0.48601E+04   -0.16779E+05  1800   0.898E+02
DAV:   2    -0.787981331355E+02   -0.49389E+04   -0.44915E+04  2556   0.206E+02
DAV:   3    -0.118480328932E+04   -0.11060E+04   -0.11017E+04  2160   0.108E+02
DAV:   4    -0.122819630559E+04   -0.43393E+02   -0.43215E+02  2052   0.281E+01
DAV:   5    -0.122933928051E+04   -0.11430E+01   -0.11411E+01  2340   0.421E+00    0.633E+01
RMM:   6    -0.121232471249E+04    0.17015E+02   -0.12425E+01  1584   0.358E+00    0.497E+01
RMM:   7    -0.118016772495E+04    0.32157E+02   -0.40769E+01  1584   0.715E+00    0.332E+01
RMM:   8    -0.116723340374E+04    0.12934E+02   -0.15539E+01  1584   0.449E+00    0.270E+01
RMM:   9    -0.116162005739E+04    0.56133E+01   -0.15911E+01  1584   0.454E+00    0.145E+01
RMM:  10    -0.116161973167E+04    0.32572E-03   -0.66922E+00  1586   0.295E+00    0.991E+00
RMM:  11    -0.116183155422E+04   -0.21182E+00   -0.84259E-01  1611   0.108E+00    0.623E+00
RMM:  12    -0.116145571586E+04    0.37584E+00   -0.10778E+00  1584   0.110E+00    0.456E+00
RMM:  13    -0.116126378824E+04    0.19193E+00   -0.44101E-01  1584   0.702E-01    0.230E+00
RMM:  14    -0.116125057472E+04    0.13214E-01   -0.31152E-02  1606   0.197E-01    0.113E+00
RMM:  15    -0.116125192204E+04   -0.13473E-02   -0.13299E-02  1600   0.109E-01    0.632E-01
RMM:  16    -0.116125588152E+04   -0.39595E-02   -0.49832E-03  1597   0.767E-02    0.662E-01
RMM:  17    -0.116125646968E+04   -0.58816E-03   -0.11346E-03  1511   0.370E-02    0.581E-01
RMM:  18    -0.116125779325E+04   -0.13236E-02   -0.49037E-03  1589   0.850E-02    0.366E-01
RMM:  19    -0.116125770387E+04    0.89375E-04   -0.30932E-03  1584   0.612E-02    0.155E-01
RMM:  20    -0.116125818398E+04   -0.48011E-03   -0.21455E-04  1140   0.189E-02    0.115E-01
RMM:  21    -0.116125816874E+04    0.15243E-04   -0.53527E-04  1346   0.268E-02
   1 F= -.11685490E+04 E0= -.11685410E+04  d E =-.116855E+04  mag=     1.7257
       N       E                     dE             d eps       ncg     rms          rms(c)
DAV:   1    -0.116125062601E+04    0.75580E-02   -0.29032E+00  1620   0.236E+00    0.765E-01
RMM:   2    -0.116125615805E+04   -0.55320E-02   -0.70251E-02  1584   0.346E-01    0.662E-01
RMM:   3    -0.116125465582E+04    0.15022E-02   -0.55558E-03  1656   0.852E-02    0.522E-01
RMM:   4    -0.116125237615E+04    0.22797E-02   -0.70655E-03  1586   0.919E-02    0.259E-01
RMM:   5    -0.116125229391E+04    0.82241E-04   -0.14027E-03  1584   0.431E-02    0.988E-02
RMM:   6    -0.116125233105E+04   -0.37136E-04   -0.17203E-04  1088   0.165E-02
   2 F= -.11685439E+04 E0= -.11685409E+04  d E =0.510335E-02  mag=     1.9300
       N       E                     dE             d eps       ncg     rms          rms(c)
DAV:   1    -0.116126294046E+04   -0.10647E-01   -0.99141E-01  1692   0.137E+00    0.407E-01
RMM:   2    -0.116126405667E+04   -0.11162E-02   -0.18810E-02  1585   0.193E-01    0.367E-01
RMM:   3    -0.116126338945E+04    0.66722E-03   -0.15109E-03  1600   0.459E-02    0.299E-01
RMM:   4    -0.116126239940E+04    0.99005E-03   -0.30129E-03  1584   0.592E-02    0.142E-01
RMM:   5    -0.116126237622E+04    0.23175E-04   -0.28271E-04  1154   0.206E-02
   3 F= -.11685535E+04 E0= -.11685481E+04  d E =-.451791E-02  mag=     1.8443
       N       E                     dE             d eps       ncg     rms          rms(c)
DAV:   1    -0.116126325420E+04   -0.85480E-03   -0.71564E-01  1692   0.127E+00    0.297E-01
RMM:   2    -0.116126395386E+04   -0.69966E-03   -0.12287E-02  1584   0.163E-01    0.256E-01
RMM:   3    -0.116126340010E+04    0.55376E-03   -0.85103E-04  1536   0.372E-02    0.206E-01
RMM:   4    -0.116126277324E+04    0.62686E-03   -0.35705E-03  1584   0.639E-02    0.723E-02
RMM:   5    -0.116126274872E+04    0.24524E-04   -0.94907E-05  1060   0.137E-02
   4 F= -.11685533E+04 E0= -.11685489E+04  d E =0.264296E-03  mag=     1.8765
       N       E                     dE             d eps       ncg     rms          rms(c)
DAV:   1    -0.116126424126E+04   -0.14680E-02   -0.20820E-01  1656   0.686E-01    0.157E-01
RMM:   2    -0.116126438732E+04   -0.14605E-03   -0.32620E-03  1584   0.847E-02    0.140E-01
RMM:   3    -0.116126420365E+04    0.18367E-03   -0.21302E-04  1114   0.199E-02    0.114E-01
RMM:   4    -0.116126398651E+04    0.21714E-03   -0.12270E-03  1579   0.380E-02    0.436E-02
RMM:   5    -0.116126398137E+04    0.51307E-05   -0.26882E-05   997   0.779E-03
   5 F= -.11685548E+04 E0= -.11685498E+04  d E =-.131317E-02  mag=     1.8548
       N       E                     dE             d eps       ncg     rms          rms(c)
DAV:   1    -0.116126528103E+04   -0.12945E-02   -0.25338E-01  1728   0.789E-01    0.133E-01
RMM:   2    -0.116126549580E+04   -0.21477E-03   -0.46608E-03  1584   0.103E-01    0.121E-01
RMM:   3    -0.116126529825E+04    0.19755E-03   -0.26714E-04  1171   0.220E-02    0.101E-01
RMM:   4    -0.116126505783E+04    0.24042E-03   -0.87615E-04  1548   0.313E-02    0.543E-02
RMM:   5    -0.116126503809E+04    0.19738E-04   -0.59987E-05  1022   0.104E-02
   6 F= -.11685555E+04 E0= -.11685505E+04  d E =-.623447E-03  mag=     1.8591
       N       E                     dE             d eps       ncg     rms          rms(c)
DAV:   1    -0.116126510382E+04   -0.45997E-04   -0.19399E-02  1692   0.218E-01    0.380E-02
RMM:   2    -0.116126511698E+04   -0.13159E-04   -0.35362E-04  1216   0.287E-02
   7 F= -.11685557E+04 E0= -.11685507E+04  d E =-.818945E-03  mag=     1.8585
