       N       E                     dE             d eps       ncg     rms          rms(c)
DAV:   1     0.502704767288E+04    0.50270E+04   -0.16533E+05  1728   0.921E+02
DAV:   2    -0.120397774268E+02   -0.50391E+04   -0.45663E+04  2432   0.216E+02
DAV:   3    -0.118117167399E+04   -0.11691E+04   -0.11559E+04  2048   0.115E+02
DAV:   4    -0.123188083698E+04   -0.50709E+02   -0.50457E+02  1952   0.318E+01
DAV:   5    -0.123331649203E+04   -0.14357E+01   -0.14322E+01  2304   0.524E+00    0.746E+01
RMM:   6    -0.123519376788E+04   -0.18773E+01   -0.90718E+01  1678   0.134E+01    0.783E+01
RMM:   7    -0.121209926012E+04    0.23095E+02   -0.12381E+01  1537   0.599E+00    0.502E+01
RMM:   8    -0.119274000070E+04    0.19359E+02   -0.11061E+01  1557   0.437E+00    0.390E+01
RMM:   9    -0.117317991880E+04    0.19560E+02   -0.36321E+01  1705   0.738E+00    0.464E+01
RMM:  10    -0.116134742752E+04    0.11832E+02   -0.20169E+01  1636   0.685E+00    0.228E+01
RMM:  11    -0.115993886146E+04    0.14086E+01   -0.10855E+01  1602   0.484E+00    0.115E+01
RMM:  12    -0.116046061497E+04   -0.52175E+00   -0.49362E+00  1602   0.320E+00    0.104E+01
RMM:  13    -0.116041759090E+04    0.43024E-01   -0.20430E+00  1674   0.206E+00    0.829E+00
RMM:  14    -0.116054888905E+04   -0.13130E+00   -0.26328E-01  1680   0.694E-01    0.788E+00
RMM:  15    -0.116050523933E+04    0.43650E-01   -0.93854E-01  1565   0.115E+00    0.650E+00
RMM:  16    -0.116010543062E+04    0.39981E+00   -0.36255E-01  1573   0.877E-01    0.240E+00
RMM:  17    -0.116009555946E+04    0.98712E-02   -0.49748E-02  1713   0.338E-01    0.243E+00
RMM:  18    -0.116002400252E+04    0.71557E-01   -0.30833E-02  1543   0.229E-01    0.269E+00
RMM:  19    -0.116019091373E+04   -0.16691E+00   -0.45214E-02  1575   0.261E-01    0.224E+00
RMM:  20    -0.116019877007E+04   -0.78563E-02   -0.52212E-03  1690   0.101E-01    0.219E+00
RMM:  21    -0.116018361511E+04    0.15155E-01   -0.11217E-03  1662   0.488E-02    0.221E+00
RMM:  22    -0.116025284015E+04   -0.69225E-01   -0.16756E-02  1709   0.131E-01    0.207E+00
RMM:  23    -0.116029483588E+04   -0.41996E-01   -0.17482E-02  1763   0.141E-01    0.203E+00
RMM:  24    -0.116035510396E+04   -0.60268E-01   -0.29839E-02  1894   0.182E-01    0.187E+00
RMM:  25    -0.116048847105E+04   -0.13337E+00   -0.22104E-01  2415   0.507E-01    0.105E+00
RMM:  26    -0.116042881271E+04    0.59658E-01   -0.13770E-01  2274   0.417E-01    0.144E+00
RMM:  27    -0.116039033302E+04    0.38480E-01   -0.19287E-02  1868   0.144E-01    0.171E+00
RMM:  28    -0.116048868562E+04   -0.98353E-01   -0.17281E-01  2164   0.413E-01    0.858E-01
RMM:  29    -0.116049385459E+04   -0.51690E-02   -0.14592E-03  1695   0.608E-02    0.854E-01
RMM:  30    -0.116045006457E+04    0.43790E-01   -0.76130E-02  2272   0.298E-01    0.146E+00
RMM:  31    -0.116048072815E+04   -0.30664E-01   -0.12062E-02  1840   0.136E-01    0.122E+00
RMM:  32    -0.116049768997E+04   -0.16962E-01   -0.86561E-03  1788   0.994E-02    0.782E-01
RMM:  33    -0.116049607023E+04    0.16197E-02   -0.20553E-02  2107   0.155E-01    0.544E-01
RMM:  34    -0.116050330361E+04   -0.72334E-02   -0.88215E-03  1782   0.102E-01    0.365E-01
RMM:  35    -0.116050406631E+04   -0.76270E-03   -0.15360E-03  1730   0.500E-02    0.258E-01
RMM:  36    -0.116050477539E+04   -0.70908E-03   -0.89726E-04  1745   0.389E-02    0.145E-01
RMM:  37    -0.116050518691E+04   -0.41152E-03   -0.34958E-04  1683   0.253E-02    0.104E-01
RMM:  38    -0.116050519284E+04   -0.59306E-05   -0.62500E-05  1675   0.123E-02    0.859E-02
RMM:  39    -0.116050524652E+04   -0.53683E-04   -0.42017E-05  1548   0.872E-03    0.694E-02
RMM:  40    -0.116050522183E+04    0.24692E-04   -0.35427E-04  1739   0.198E-02    0.443E-02
RMM:  41    -0.116050530433E+04   -0.82496E-04   -0.19768E-05  1461   0.672E-03    0.334E-02
RMM:  42    -0.116050533026E+04   -0.25937E-04   -0.17709E-05  1394   0.522E-03    0.180E-02
RMM:  43    -0.116050533840E+04   -0.81401E-05   -0.52639E-06  1196   0.301E-03    0.129E-02
RMM:  44    -0.116050533876E+04   -0.35810E-06   -0.13056E-06  1063   0.177E-03
   1 F= -.11605053E+04 E0= -.11605047E+04  d E =-.116051E+04  mag=     0.9993
       N       E                     dE             d eps       ncg     rms          rms(c)
DAV:   1    -0.116049050207E+04    0.14836E-01   -0.76855E+00  1696   0.383E+00    0.796E-01
RMM:   2    -0.116050636184E+04   -0.15860E-01   -0.17061E-01  1579   0.700E-01    0.762E-01
RMM:   3    -0.116051082745E+04   -0.44656E-02   -0.50913E-02  1802   0.292E-01    0.686E-01
RMM:   4    -0.116050975509E+04    0.10724E-02   -0.85173E-03  1732   0.122E-01    0.571E-01
RMM:   5    -0.116050788241E+04    0.18727E-02   -0.72150E-03  1581   0.996E-02    0.354E-01
RMM:   6    -0.116050778234E+04    0.10007E-03   -0.77725E-03  1585   0.990E-02    0.182E-01
RMM:   7    -0.116050793215E+04   -0.14981E-03   -0.11590E-03  1774   0.504E-02    0.118E-01
RMM:   8    -0.116050791263E+04    0.19516E-04   -0.41410E-04  1611   0.264E-02    0.621E-02
RMM:   9    -0.116050791065E+04    0.19831E-05   -0.13071E-04  1701   0.152E-02    0.500E-02
RMM:  10    -0.116050791159E+04   -0.93992E-06   -0.94874E-05  1607   0.116E-02    0.272E-02
RMM:  11    -0.116050791469E+04   -0.31027E-05   -0.13882E-05  1494   0.576E-03    0.172E-02
RMM:  12    -0.116050791867E+04   -0.39787E-05   -0.21959E-05  1529   0.567E-03    0.929E-03
RMM:  13    -0.116050791861E+04    0.59928E-07   -0.59815E-06  1339   0.336E-03
   2 F= -.11605079E+04 E0= -.11605078E+04  d E =-.257985E-02  mag=     1.0000
       N       E                     dE             d eps       ncg     rms          rms(c)
DAV:   1    -0.116051863773E+04   -0.10719E-01   -0.17723E+00  1728   0.186E+00    0.394E-01
RMM:   2    -0.116052135830E+04   -0.27206E-02   -0.31064E-02  1552   0.327E-01    0.366E-01
RMM:   3    -0.116052208220E+04   -0.72390E-03   -0.89887E-03  1730   0.135E-01    0.322E-01
RMM:   4    -0.116052190314E+04    0.17907E-03   -0.17328E-03  1706   0.576E-02    0.271E-01
RMM:   5    -0.116052149569E+04    0.40745E-03   -0.13937E-03  1582   0.454E-02    0.170E-01
RMM:   6    -0.116052150302E+04   -0.73255E-05   -0.17966E-03  1582   0.475E-02    0.777E-02
RMM:   7    -0.116052154245E+04   -0.39430E-04   -0.26184E-04  1777   0.241E-02    0.528E-02
RMM:   8    -0.116052154732E+04   -0.48748E-05   -0.68599E-05  1600   0.110E-02    0.301E-02
RMM:   9    -0.116052154697E+04    0.35078E-06   -0.34684E-05  1587   0.770E-03    0.217E-02
RMM:  10    -0.116052154869E+04   -0.17187E-05   -0.21261E-05  1538   0.584E-03    0.119E-02
RMM:  11    -0.116052155103E+04   -0.23423E-05   -0.35885E-06  1189   0.307E-03    0.793E-03
RMM:  12    -0.116052155122E+04   -0.19330E-06   -0.43739E-06  1264   0.280E-03
   3 F= -.11605216E+04 E0= -.11605213E+04  d E =-.162125E-01  mag=     1.0000
       N       E                     dE             d eps       ncg     rms          rms(c)
DAV:   1    -0.116051801645E+04    0.35346E-02   -0.61446E+00  1664   0.342E+00    0.822E-01
RMM:   2    -0.116052637559E+04   -0.83591E-02   -0.75318E-02  1548   0.527E-01    0.631E-01
RMM:   3    -0.116052954474E+04   -0.31692E-02   -0.20939E-02  1695   0.221E-01    0.495E-01
RMM:   4    -0.116053024815E+04   -0.70341E-03   -0.52057E-03  1654   0.107E-01    0.336E-01
RMM:   5    -0.116053022580E+04    0.22352E-04   -0.24686E-03  1616   0.625E-02    0.231E-01
RMM:   6    -0.116053074655E+04   -0.52075E-03   -0.24679E-03  1582   0.632E-02    0.948E-02
RMM:   7    -0.116053088466E+04   -0.13812E-03   -0.40414E-04  1786   0.324E-02    0.616E-02
RMM:   8    -0.116053086625E+04    0.18414E-04   -0.19225E-04  1584   0.170E-02    0.294E-02
RMM:   9    -0.116053086976E+04   -0.35065E-05   -0.46443E-05  1724   0.946E-03    0.205E-02
RMM:  10    -0.116053087118E+04   -0.14284E-05   -0.14167E-05  1543   0.577E-03    0.113E-02
RMM:  11    -0.116053087127E+04   -0.82953E-07   -0.60109E-06  1353   0.347E-03
   4 F= -.11605309E+04 E0= -.11605305E+04  d E =-.932004E-02  mag=     1.0000
       N       E                     dE             d eps       ncg     rms          rms(c)
DAV:   1    -0.116053203000E+04   -0.11588E-02   -0.61301E-01  1664   0.109E+00    0.263E-01
RMM:   2    -0.116053283963E+04   -0.80963E-03   -0.72740E-03  1547   0.162E-01    0.203E-01
RMM:   3    -0.116053314518E+04   -0.30554E-03   -0.18929E-03  1697   0.681E-02    0.152E-01
RMM:   4    -0.116053319845E+04   -0.53272E-04   -0.51844E-04  1644   0.332E-02    0.104E-01
RMM:   5    -0.116053323108E+04   -0.32632E-04   -0.23676E-04  1623   0.195E-02    0.716E-02
RMM:   6    -0.116053329357E+04   -0.62490E-04   -0.22254E-04  1577   0.195E-02    0.301E-02
RMM:   7    -0.116053331498E+04   -0.21413E-04   -0.43895E-05  1749   0.105E-02    0.194E-02
RMM:   8    -0.116053331485E+04    0.13253E-06   -0.19910E-05  1540   0.572E-03    0.938E-03
RMM:   9    -0.116053331612E+04   -0.12734E-05   -0.52171E-06  1306   0.321E-03    0.612E-03
RMM:  10    -0.116053331715E+04   -0.10281E-05   -0.13784E-06  1048   0.220E-03    0.372E-03
RMM:  11    -0.116053331775E+04   -0.59912E-06   -0.88785E-07  1029   0.154E-03
   5 F= -.11605333E+04 E0= -.11605330E+04  d E =-.117665E-01  mag=     1.0000
       N       E                     dE             d eps       ncg     rms          rms(c)
DAV:   1    -0.116052598897E+04    0.73282E-02   -0.56810E+00  1664   0.318E+00    0.907E-01
RMM:   2    -0.116053419060E+04   -0.82016E-02   -0.63952E-02  1545   0.459E-01    0.646E-01
RMM:   3    -0.116053799854E+04   -0.38079E-02   -0.17844E-02  1678   0.207E-01    0.448E-01
RMM:   4    -0.116053861691E+04   -0.61837E-03   -0.48087E-03  1660   0.103E-01    0.325E-01
RMM:   5    -0.116053867776E+04   -0.60844E-04   -0.21459E-03  1578   0.614E-02    0.215E-01
RMM:   6    -0.116053932899E+04   -0.65123E-03   -0.24592E-03  1563   0.642E-02    0.860E-02
RMM:   7    -0.116053936919E+04   -0.40208E-04   -0.30054E-04  1660   0.316E-02    0.471E-02
RMM:   8    -0.116053935418E+04    0.15011E-04   -0.13953E-04  1595   0.151E-02    0.269E-02
RMM:   9    -0.116053935630E+04   -0.21200E-05   -0.36317E-05  1722   0.844E-03    0.170E-02
RMM:  10    -0.116053935433E+04    0.19683E-05   -0.11804E-05  1516   0.513E-03    0.118E-02
RMM:  11    -0.116053935499E+04   -0.65146E-06   -0.94999E-06  1515   0.427E-03
   6 F= -.11605394E+04 E0= -.11605379E+04  d E =-.603724E-02  mag=     1.0000
       N       E                     dE             d eps       ncg     rms          rms(c)
DAV:   1    -0.116053949420E+04   -0.13987E-03   -0.57220E-01  1664   0.101E+00    0.289E-01
RMM:   2    -0.116054024105E+04   -0.74684E-03   -0.62704E-03  1544   0.140E-01    0.208E-01
RMM:   3    -0.116054070279E+04   -0.46174E-03   -0.16621E-03  1640   0.640E-02    0.129E-01
RMM:   4    -0.116054072349E+04   -0.20697E-04   -0.45647E-04  1699   0.311E-02    0.994E-02
RMM:   5    -0.116054080640E+04   -0.82913E-04   -0.30465E-04  1554   0.230E-02    0.476E-02
RMM:   6    -0.116054086845E+04   -0.62054E-04   -0.13825E-04  1602   0.165E-02    0.258E-02
RMM:   7    -0.116054087206E+04   -0.36088E-05   -0.20186E-05  1637   0.747E-03    0.160E-02
RMM:   8    -0.116054087441E+04   -0.23534E-05   -0.10093E-05  1481   0.429E-03    0.967E-03
RMM:   9    -0.116054087596E+04   -0.15414E-05   -0.56762E-06  1378   0.335E-03    0.504E-03
RMM:  10    -0.116054087597E+04   -0.12558E-07   -0.22863E-06  1094   0.234E-03
   7 F= -.11605409E+04 E0= -.11605399E+04  d E =-.755822E-02  mag=     1.0000
       N       E                     dE             d eps       ncg     rms          rms(c)
DAV:   1    -0.116053310668E+04    0.77693E-02   -0.38464E+00  1600   0.259E+00    0.772E-01
RMM:   2    -0.116053877574E+04   -0.56691E-02   -0.41831E-02  1546   0.362E-01    0.536E-01
RMM:   3    -0.116054202863E+04   -0.32529E-02   -0.11777E-02  1681   0.164E-01    0.348E-01
RMM:   4    -0.116054265035E+04   -0.62172E-03   -0.29403E-03  1692   0.795E-02    0.259E-01
RMM:   5    -0.116054295521E+04   -0.30487E-03   -0.12478E-03  1589   0.455E-02    0.166E-01
RMM:   6    -0.116054353193E+04   -0.57672E-03   -0.13196E-03  1587   0.463E-02    0.616E-02
RMM:   7    -0.116054351569E+04    0.16238E-04   -0.13601E-04  1656   0.204E-02    0.416E-02
RMM:   8    -0.116054349479E+04    0.20901E-04   -0.89682E-05  1565   0.117E-02    0.235E-02
RMM:   9    -0.116054349977E+04   -0.49810E-05   -0.36628E-05  1665   0.779E-03    0.140E-02
RMM:  10    -0.116054349810E+04    0.16749E-05   -0.90619E-06  1468   0.456E-03    0.974E-03
RMM:  11    -0.116054349751E+04    0.59186E-06   -0.68607E-06  1449   0.364E-03
   8 F= -.11605435E+04 E0= -.11605414E+04  d E =-.262154E-02  mag=     1.0000
       N       E                     dE             d eps       ncg     rms          rms(c)
DAV:   1    -0.116054352104E+04   -0.22936E-04   -0.57212E-01  1664   0.100E+00    0.297E-01
RMM:   2    -0.116054430473E+04   -0.78369E-03   -0.61592E-03  1547   0.136E-01    0.210E-01
RMM:   3    -0.116054486032E+04   -0.55560E-03   -0.16878E-03  1643   0.630E-02    0.121E-01
RMM:   4    -0.116054492487E+04   -0.64547E-04   -0.43527E-04  1738   0.294E-02    0.937E-02
RMM:   5    -0.116054505160E+04   -0.12673E-03   -0.25699E-04  1567   0.208E-02    0.440E-02
RMM:   6    -0.116054510546E+04   -0.53858E-04   -0.91498E-05  1677   0.136E-02    0.233E-02
RMM:   7    -0.116054510859E+04   -0.31319E-05   -0.17317E-05  1579   0.623E-03    0.146E-02
RMM:   8    -0.116054510773E+04    0.86340E-06   -0.80774E-06  1430   0.371E-03
   9 F= -.11605451E+04 E0= -.11605435E+04  d E =-.423176E-02  mag=     1.0000
       N       E                     dE             d eps       ncg     rms          rms(c)
DAV:   1    -0.116054304426E+04    0.20643E-02   -0.14887E+00  1600   0.167E+00    0.473E-01
RMM:   2    -0.116054504608E+04   -0.20018E-02   -0.16593E-02  1549   0.226E-01    0.331E-01
RMM:   3    -0.116054639555E+04   -0.13495E-02   -0.44138E-03  1679   0.102E-01    0.206E-01
RMM:   4    -0.116054655166E+04   -0.15611E-03   -0.10544E-03  1717   0.479E-02    0.159E-01
RMM:   5    -0.116054673310E+04   -0.18144E-03   -0.43129E-04  1589   0.275E-02    0.983E-02
RMM:   6    -0.116054693232E+04   -0.19923E-03   -0.38068E-04  1592   0.264E-02    0.346E-02
RMM:   7    -0.116054693608E+04   -0.37572E-05   -0.48951E-05  1774   0.114E-02    0.244E-02
RMM:   8    -0.116054692891E+04    0.71671E-05   -0.23507E-05  1527   0.603E-03    0.149E-02
RMM:   9    -0.116054693559E+04   -0.66779E-05   -0.14673E-05  1551   0.484E-03    0.823E-03
RMM:  10    -0.116054693583E+04   -0.23901E-06   -0.32669E-06  1118   0.300E-03
  10 F= -.11605469E+04 E0= -.11605442E+04  d E =-.182811E-02  mag=     1.0000
       N       E                     dE             d eps       ncg     rms          rms(c)
DAV:   1    -0.116054695680E+04   -0.21204E-04   -0.12401E-01  1664   0.483E-01    0.137E-01
RMM:   2    -0.116054709481E+04   -0.13802E-03   -0.13760E-03  1550   0.646E-02    0.964E-02
RMM:   3    -0.116054721875E+04   -0.12394E-03   -0.37372E-04  1666   0.298E-02    0.565E-02
RMM:   4    -0.116054723056E+04   -0.11811E-04   -0.83556E-05  1702   0.134E-02    0.427E-02
RMM:   5    -0.116054726467E+04   -0.34115E-04   -0.43887E-05  1566   0.927E-03    0.210E-02
RMM:   6    -0.116054728245E+04   -0.17775E-04   -0.19779E-05  1558   0.653E-03    0.922E-03
RMM:   7    -0.116054728375E+04   -0.13001E-05   -0.32055E-06  1124   0.320E-03    0.661E-03
RMM:   8    -0.116054728367E+04    0.74462E-07   -0.12921E-06  1042   0.181E-03
  11 F= -.11605473E+04 E0= -.11605449E+04  d E =-.217595E-02  mag=     1.0000
       N       E                     dE             d eps       ncg     rms          rms(c)
DAV:   1    -0.116054687347E+04    0.41028E-03   -0.63103E-01  1600   0.117E+00    0.275E-01
RMM:   2    -0.116054769528E+04   -0.82181E-03   -0.76443E-03  1552   0.155E-01    0.199E-01
RMM:   3    -0.116054804915E+04   -0.35387E-03   -0.18493E-03  1671   0.683E-02    0.129E-01
RMM:   4    -0.116054813872E+04   -0.89567E-04   -0.50232E-04  1709   0.336E-02    0.968E-02
RMM:   5    -0.116054819529E+04   -0.56575E-04   -0.19586E-04  1631   0.192E-02    0.611E-02
RMM:   6    -0.116054828293E+04   -0.87638E-04   -0.16513E-04  1596   0.178E-02    0.224E-02
RMM:   7    -0.116054828324E+04   -0.31410E-06   -0.21333E-05  1697   0.788E-03    0.164E-02
RMM:   8    -0.116054827952E+04    0.37207E-05   -0.17707E-05  1525   0.507E-03    0.909E-03
RMM:   9    -0.116054828257E+04   -0.30471E-05   -0.76703E-06  1490   0.367E-03    0.525E-03
RMM:  10    -0.116054828272E+04   -0.14923E-06   -0.12645E-06  1045   0.235E-03
  12 F= -.11605483E+04 E0= -.11605453E+04  d E =-.999046E-03  mag=     1.0000
       N       E                     dE             d eps       ncg     rms          rms(c)
DAV:   1    -0.116054832215E+04   -0.39581E-04   -0.41737E-02  1664   0.300E-01    0.708E-02
RMM:   2    -0.116054836171E+04   -0.39557E-04   -0.50042E-04  1548   0.395E-02    0.513E-02
RMM:   3    -0.116054838402E+04   -0.22311E-04   -0.12207E-04  1658   0.176E-02    0.323E-02
RMM:   4    -0.116054838986E+04   -0.58369E-05   -0.31284E-05  1643   0.847E-03    0.238E-02
RMM:   5    -0.116054840368E+04   -0.13819E-04   -0.14508E-05  1559   0.565E-03    0.122E-02
RMM:   6    -0.116054841222E+04   -0.85464E-05   -0.83478E-06  1518   0.437E-03    0.543E-03
RMM:   7    -0.116054841277E+04   -0.54764E-06   -0.12195E-06  1043   0.225E-03
  13 F= -.11605484E+04 E0= -.11605456E+04  d E =-.112910E-02  mag=     1.0000
