       N       E                     dE             d eps       ncg     rms          rms(c)
DAV:   1     0.478400093375E+04    0.47840E+04   -0.17527E+05  1856   0.942E+02
DAV:   2    -0.545076195257E+02   -0.48385E+04   -0.44005E+04  2400   0.210E+02
DAV:   3    -0.119631049577E+04   -0.11418E+04   -0.11366E+04  2016   0.111E+02
DAV:   4    -0.124409425232E+04   -0.47784E+02   -0.47521E+02  1952   0.301E+01
DAV:   5    -0.124529626988E+04   -0.12020E+01   -0.11997E+01  2400   0.444E+00    0.718E+01
RMM:   6    -0.122983643033E+04    0.15460E+02   -0.93211E+00  1581   0.361E+00    0.549E+01
RMM:   7    -0.119813525867E+04    0.31701E+02   -0.80214E+01  1631   0.100E+01    0.331E+01
RMM:   8    -0.119028127199E+04    0.78540E+01   -0.89669E+00  1583   0.451E+00    0.289E+01
RMM:   9    -0.118391554923E+04    0.63657E+01   -0.37880E+01  1685   0.716E+00    0.224E+01
RMM:  10    -0.118139090589E+04    0.25246E+01   -0.80055E+00  1566   0.396E+00    0.174E+01
RMM:  11    -0.117882465022E+04    0.25663E+01   -0.77261E+00  1680   0.288E+00    0.935E+00
RMM:  12    -0.117878959422E+04    0.35056E-01   -0.88632E-01  1675   0.139E+00    0.668E+00
RMM:  13    -0.117845825566E+04    0.33134E+00   -0.27916E-01  1606   0.718E-01    0.498E+00
RMM:  14    -0.117837983039E+04    0.78425E-01   -0.21889E-01  1549   0.588E-01    0.412E+00
RMM:  15    -0.117844389446E+04   -0.64064E-01   -0.15962E-01  1584   0.489E-01    0.218E+00
RMM:  16    -0.117842038436E+04    0.23510E-01   -0.14152E-01  1569   0.467E-01    0.123E+00
RMM:  17    -0.117841448891E+04    0.58954E-02   -0.40007E-02  1548   0.290E-01    0.969E-01
RMM:  18    -0.117841528576E+04   -0.79684E-03   -0.13958E-02  1637   0.169E-01    0.677E-01
RMM:  19    -0.117841471769E+04    0.56806E-03   -0.61841E-03  1633   0.107E-01    0.535E-01
RMM:  20    -0.117841279417E+04    0.19235E-02   -0.22124E-03  1652   0.631E-02    0.376E-01
RMM:  21    -0.117841224065E+04    0.55353E-03   -0.14546E-03  1592   0.477E-02    0.260E-01
RMM:  22    -0.117841153678E+04    0.70387E-03   -0.65626E-04  1718   0.290E-02    0.179E-01
RMM:  23    -0.117841124020E+04    0.29657E-03   -0.26719E-04  1684   0.171E-02    0.118E-01
RMM:  24    -0.117841113833E+04    0.10187E-03   -0.12716E-04  1672   0.128E-02    0.849E-02
RMM:  25    -0.117841107251E+04    0.65818E-04   -0.72855E-05  1770   0.884E-03    0.571E-02
RMM:  26    -0.117841104677E+04    0.25744E-04   -0.41395E-05  1607   0.657E-03    0.358E-02
RMM:  27    -0.117841102973E+04    0.17041E-04   -0.14168E-05  1585   0.392E-03    0.288E-02
RMM:  28    -0.117841102273E+04    0.69978E-05   -0.46266E-06  1196   0.234E-03    0.223E-02
RMM:  29    -0.117841101319E+04    0.95329E-05   -0.85773E-06  1360   0.272E-03    0.124E-02
RMM:  30    -0.117841101097E+04    0.22285E-05   -0.22351E-06  1113   0.161E-03    0.720E-03
RMM:  31    -0.117841101036E+04    0.60367E-06   -0.13171E-06  1067   0.122E-03
   1 F= -.11855723E+04 E0= -.11855723E+04  d E =-.118557E+04  mag=    -1.0000
       N       E                     dE             d eps       ncg     rms          rms(c)
DAV:   1    -0.117840904260E+04    0.19684E-02   -0.42746E-01  1632   0.107E+00    0.222E-01
RMM:   2    -0.117840996587E+04   -0.92328E-03   -0.11133E-02  1630   0.159E-01    0.203E-01
RMM:   3    -0.117840996865E+04   -0.27717E-05   -0.24022E-03  1876   0.676E-02    0.176E-01
RMM:   4    -0.117840983902E+04    0.12963E-03   -0.13087E-03  1582   0.458E-02    0.859E-02
RMM:   5    -0.117840985805E+04   -0.19034E-04   -0.29291E-04  1881   0.238E-02    0.536E-02
RMM:   6    -0.117840981584E+04    0.42212E-04   -0.10762E-04  1558   0.118E-02    0.203E-02
RMM:   7    -0.117840981508E+04    0.75994E-06   -0.20864E-05  1726   0.601E-03    0.134E-02
RMM:   8    -0.117840981304E+04    0.20376E-05   -0.26228E-05  1547   0.590E-03    0.618E-03
RMM:   9    -0.117840981301E+04    0.28274E-07   -0.56592E-06  1476   0.323E-03
   2 F= -.11855719E+04 E0= -.11855719E+04  d E =0.432650E-03  mag=    -1.0000
       N       E                     dE             d eps       ncg     rms          rms(c)
DAV:   1    -0.117841135298E+04   -0.15399E-02   -0.13225E-01  1664   0.591E-01    0.124E-01
RMM:   2    -0.117841153423E+04   -0.18125E-03   -0.25128E-03  1617   0.839E-02    0.112E-01
RMM:   3    -0.117841149103E+04    0.43205E-04   -0.47121E-04  1680   0.344E-02    0.924E-02
RMM:   4    -0.117841147401E+04    0.17015E-04   -0.45545E-04  1593   0.267E-02    0.469E-02
RMM:   5    -0.117841146233E+04    0.11684E-04   -0.56353E-05  1741   0.116E-02    0.255E-02
RMM:   6    -0.117841145888E+04    0.34490E-05   -0.25862E-05  1534   0.600E-03    0.109E-02
RMM:   7    -0.117841145748E+04    0.13975E-05   -0.53757E-06  1362   0.302E-03    0.754E-03
RMM:   8    -0.117841145715E+04    0.33317E-06   -0.12473E-05  1543   0.398E-03    0.400E-03
RMM:   9    -0.117841145679E+04    0.36009E-06   -0.13201E-06  1039   0.178E-03
   3 F= -.11855731E+04 E0= -.11855731E+04  d E =-.785956E-03  mag=    -1.0000
       N       E                     dE             d eps       ncg     rms          rms(c)
DAV:   1    -0.117841203556E+04   -0.57841E-03   -0.21687E-01  1824   0.744E-01    0.110E-01
RMM:   2    -0.117841228098E+04   -0.24542E-03   -0.31224E-03  1607   0.911E-02    0.939E-02
RMM:   3    -0.117841228449E+04   -0.35122E-05   -0.62832E-04  1622   0.390E-02    0.721E-02
RMM:   4    -0.117841227874E+04    0.57537E-05   -0.33790E-04  1608   0.252E-02    0.256E-02
RMM:   5    -0.117841227643E+04    0.23061E-05   -0.52945E-05  1862   0.105E-02    0.184E-02
RMM:   6    -0.117841227614E+04    0.28782E-06   -0.14518E-05  1528   0.483E-03    0.117E-02
RMM:   7    -0.117841227606E+04    0.78613E-07   -0.34134E-06  1176   0.250E-03
   4 F= -.11855743E+04 E0= -.11855743E+04  d E =-.119992E-02  mag=    -1.0000
       N       E                     dE             d eps       ncg     rms          rms(c)
DAV:   1    -0.117841218835E+04    0.87793E-04   -0.61226E-02  1568   0.395E-01    0.591E-02
RMM:   2    -0.117841225884E+04   -0.70485E-04   -0.89820E-04  1604   0.490E-02    0.506E-02
RMM:   3    -0.117841226135E+04   -0.25196E-05   -0.18377E-04  1631   0.211E-02    0.389E-02
RMM:   4    -0.117841226239E+04   -0.10356E-05   -0.97437E-05  1610   0.135E-02    0.145E-02
RMM:   5    -0.117841226176E+04    0.62762E-06   -0.15282E-05  1772   0.567E-03    0.103E-02
RMM:   6    -0.117841226182E+04   -0.59321E-07   -0.47565E-06  1359   0.281E-03
   5 F= -.11855745E+04 E0= -.11855745E+04  d E =-.138864E-02  mag=    -1.0000
       N       E                     dE             d eps       ncg     rms          rms(c)
DAV:   1    -0.117841248288E+04   -0.22112E-03   -0.15973E-01  1728   0.661E-01    0.896E-02
RMM:   2    -0.117841274470E+04   -0.26182E-03   -0.31747E-03  1656   0.903E-02    0.782E-02
RMM:   3    -0.117841277033E+04   -0.25630E-04   -0.71797E-04  1630   0.388E-02    0.628E-02
RMM:   4    -0.117841276265E+04    0.76782E-05   -0.31137E-04  1641   0.240E-02    0.282E-02
RMM:   5    -0.117841276853E+04   -0.58763E-05   -0.63194E-05  1971   0.108E-02    0.204E-02
RMM:   6    -0.117841276522E+04    0.33118E-05   -0.12100E-05  1534   0.449E-03    0.120E-02
RMM:   7    -0.117841276575E+04   -0.53053E-06   -0.56760E-06  1511   0.311E-03
   6 F= -.11855752E+04 E0= -.11855752E+04  d E =-.751427E-03  mag=    -1.0000
       N       E                     dE             d eps       ncg     rms          rms(c)
DAV:   1    -0.117841274682E+04    0.18394E-04   -0.15915E-03  1888   0.658E-02    0.988E-03
RMM:   2    -0.117841274975E+04   -0.29228E-05   -0.34616E-05  1652   0.971E-03    0.861E-03
RMM:   3    -0.117841275007E+04   -0.32017E-06   -0.79799E-06  1385   0.424E-03
   7 F= -.11855752E+04 E0= -.11855752E+04  d E =-.760181E-03  mag=    -1.0000
       N       E                     dE             d eps       ncg     rms          rms(c)
DAV:   1    -0.117841303002E+04   -0.28027E-03   -0.95001E-02  1792   0.513E-01    0.719E-02
RMM:   2    -0.117841316964E+04   -0.13962E-03   -0.17416E-03  1651   0.668E-02    0.649E-02
RMM:   3    -0.117841318842E+04   -0.18775E-04   -0.42138E-04  1625   0.295E-02    0.538E-02
RMM:   4    -0.117841318391E+04    0.45107E-05   -0.16184E-04  1612   0.181E-02    0.209E-02
RMM:   5    -0.117841318744E+04   -0.35348E-05   -0.34175E-05  1903   0.815E-03    0.138E-02
RMM:   6    -0.117841318582E+04    0.16193E-05   -0.60238E-06  1483   0.330E-03    0.881E-03
RMM:   7    -0.117841318587E+04   -0.48407E-07   -0.33872E-06  1249   0.231E-03
   8 F= -.11855758E+04 E0= -.11855758E+04  d E =-.604120E-03  mag=    -1.0000
