       N       E                     dE             d eps       ncg     rms          rms(c)
DAV:   1     0.495332560717E+04    0.49533E+04   -0.16760E+05  1656   0.982E+02
DAV:   2     0.125302301788E+02   -0.49408E+04   -0.45348E+04  2268   0.222E+02
DAV:   3    -0.117941737756E+04   -0.11919E+04   -0.11844E+04  1872   0.121E+02
DAV:   4    -0.123256082129E+04   -0.53143E+02   -0.52781E+02  1872   0.345E+01
DAV:   5    -0.123399773066E+04   -0.14369E+01   -0.14331E+01  2052   0.539E+00    0.664E+01
RMM:   6    -0.121889204381E+04    0.15106E+02   -0.32760E+01  1479   0.628E+00    0.532E+01
RMM:   7    -0.120152589418E+04    0.17366E+02   -0.89834E+00  1448   0.379E+00    0.417E+01
RMM:   8    -0.117668457102E+04    0.24841E+02   -0.30155E+01  1441   0.700E+00    0.274E+01
RMM:   9    -0.116500596341E+04    0.11679E+02   -0.20305E+01  1442   0.598E+00    0.191E+01
RMM:  10    -0.116549317173E+04   -0.48721E+00   -0.17787E+01  1441   0.553E+00    0.913E+00
RMM:  11    -0.116541031643E+04    0.82855E-01   -0.15332E+00  1490   0.239E+00    0.705E+00
RMM:  12    -0.116518199720E+04    0.22832E+00   -0.14418E+00  1456   0.132E+00    0.360E+00
RMM:  13    -0.116470143278E+04    0.48056E+00   -0.56294E-01  1440   0.102E+00    0.186E+00
RMM:  14    -0.116467479837E+04    0.26634E-01   -0.20766E-01  1523   0.518E-01    0.105E+00
RMM:  15    -0.116466568761E+04    0.91108E-02   -0.25496E-02  1509   0.245E-01    0.578E-01
RMM:  16    -0.116466562121E+04    0.66397E-04   -0.34887E-03  1460   0.759E-02    0.518E-01
RMM:  17    -0.116466669020E+04   -0.10690E-02   -0.46876E-03  1450   0.753E-02    0.381E-01
RMM:  18    -0.116466635316E+04    0.33704E-03   -0.13520E-03  1263   0.511E-02    0.245E-01
RMM:  19    -0.116466649264E+04   -0.13948E-03   -0.64041E-04  1172   0.303E-02    0.151E-01
RMM:  20    -0.116466645734E+04    0.35298E-04   -0.21272E-04   951   0.250E-02
   1 F= -.11719055E+04 E0= -.11719055E+04  d E =-.117191E+04  mag=     0.9933
       N       E                     dE             d eps       ncg     rms          rms(c)
DAV:   1    -0.116466705560E+04   -0.56296E-03   -0.28514E-01  1512   0.813E-01    0.188E-01
RMM:   2    -0.116466733028E+04   -0.27468E-03   -0.55407E-03  1444   0.124E-01    0.218E-01
RMM:   3    -0.116466749291E+04   -0.16264E-03   -0.52567E-04  1114   0.363E-02    0.243E-01
RMM:   4    -0.116466664011E+04    0.85281E-03   -0.15659E-03  1440   0.497E-02    0.117E-01
RMM:   5    -0.116466659267E+04    0.47434E-04   -0.46918E-04  1175   0.308E-02
   2 F= -.11719057E+04 E0= -.11719057E+04  d E =-.167425E-03  mag=     1.0003
       N       E                     dE             d eps       ncg     rms          rms(c)
DAV:   1    -0.116466728657E+04   -0.64647E-03   -0.60326E-02  1620   0.373E-01    0.784E-02
RMM:   2    -0.116466729725E+04   -0.10675E-04   -0.10291E-03  1382   0.546E-02    0.772E-02
RMM:   3    -0.116466725543E+04    0.41817E-04   -0.65855E-05   873   0.157E-02
   3 F= -.11719063E+04 E0= -.11719063E+04  d E =-.813848E-03  mag=     1.0001
