       N       E                     dE             d eps       ncg     rms          rms(c)
DAV:   1     0.474142944058E+04    0.47414E+04   -0.17925E+05  1908   0.922E+02
DAV:   2    -0.975570716192E+02   -0.48390E+04   -0.44327E+04  2520   0.212E+02
DAV:   3    -0.120428435598E+04   -0.11067E+04   -0.10995E+04  2088   0.109E+02
DAV:   4    -0.124987070409E+04   -0.45586E+02   -0.45292E+02  2016   0.292E+01
DAV:   5    -0.125104755399E+04   -0.11768E+01   -0.11746E+01  2376   0.450E+00    0.986E+01
RMM:   6    -0.124846780847E+04    0.25797E+01   -0.19699E+02  1864   0.182E+01    0.972E+01
RMM:   7    -0.122448424413E+04    0.23984E+02   -0.96979E+00  1593   0.497E+00    0.684E+01
RMM:   8    -0.119720209636E+04    0.27282E+02   -0.23608E+01  1585   0.664E+00    0.386E+01
RMM:   9    -0.118583838229E+04    0.11364E+02   -0.10011E+01  1584   0.432E+00    0.303E+01
RMM:  10    -0.117130077841E+04    0.14538E+02   -0.26863E+01  1584   0.642E+00    0.214E+01
RMM:  11    -0.116832012859E+04    0.29806E+01   -0.13982E+01  1584   0.456E+00    0.125E+01
RMM:  12    -0.116986855765E+04   -0.15484E+01   -0.35243E+00  1593   0.265E+00    0.102E+01
RMM:  13    -0.116925198142E+04    0.61658E+00   -0.38798E-01  1655   0.923E-01    0.651E+00
RMM:  14    -0.116908592697E+04    0.16605E+00   -0.32904E-01  1605   0.715E-01    0.526E+00
RMM:  15    -0.116883574643E+04    0.25018E+00   -0.12418E+00  1584   0.129E+00    0.184E+00
RMM:  16    -0.116875446211E+04    0.81284E-01   -0.10002E-01  1596   0.458E-01    0.988E-01
RMM:  17    -0.116873433901E+04    0.20123E-01   -0.28923E-02  1624   0.171E-01    0.705E-01
RMM:  18    -0.116873148850E+04    0.28505E-02   -0.74678E-03  1597   0.122E-01    0.510E-01
RMM:  19    -0.116872888782E+04    0.26007E-02   -0.10016E-02  1625   0.109E-01    0.330E-01
RMM:  20    -0.116872900205E+04   -0.11423E-03   -0.16470E-03  1587   0.515E-02    0.195E-01
RMM:  21    -0.116872893300E+04    0.69046E-04   -0.17908E-04  1098   0.199E-02
   1 F= -.11758107E+04 E0= -.11758107E+04  d E =-.117581E+04  mag=    -0.0052
       N       E                     dE             d eps       ncg     rms          rms(c)
DAV:   1    -0.116872788589E+04    0.11162E-02   -0.31182E-01  1692   0.972E-01    0.237E-01
RMM:   2    -0.116872872601E+04   -0.84012E-03   -0.14152E-02  1715   0.174E-01    0.188E-01
RMM:   3    -0.116872844978E+04    0.27623E-03   -0.85499E-04  1538   0.445E-02    0.172E-01
RMM:   4    -0.116872784333E+04    0.60645E-03   -0.15922E-03  1566   0.450E-02    0.793E-02
RMM:   5    -0.116872780104E+04    0.42293E-04   -0.38198E-04  1328   0.255E-02
   2 F= -.11758097E+04 E0= -.11758097E+04  d E =0.941032E-03  mag=    -0.0004
       N       E                     dE             d eps       ncg     rms          rms(c)
DAV:   1    -0.116872945002E+04   -0.16067E-02   -0.11342E-01  1656   0.581E-01    0.115E-01
RMM:   2    -0.116872964914E+04   -0.19912E-03   -0.35361E-03  1687   0.977E-02    0.995E-02
RMM:   3    -0.116872953891E+04    0.11023E-03   -0.14986E-04  1064   0.222E-02    0.897E-02
RMM:   4    -0.116872931453E+04    0.22438E-03   -0.68571E-04  1526   0.319E-02    0.346E-02
RMM:   5    -0.116872930433E+04    0.10201E-04   -0.61911E-05   992   0.137E-02
   3 F= -.11758111E+04 E0= -.11758111E+04  d E =-.444915E-03  mag=    -0.0000
