       N       E                     dE             d eps       ncg     rms          rms(c)
DAV:   1     0.496665920520E+04    0.49667E+04   -0.17204E+05  1836   0.912E+02
DAV:   2    -0.495987699721E+02   -0.50163E+04   -0.45836E+04  2520   0.210E+02
DAV:   3    -0.118939143728E+04   -0.11398E+04   -0.11347E+04  2196   0.110E+02
DAV:   4    -0.123650739124E+04   -0.47116E+02   -0.46879E+02  2052   0.285E+01
DAV:   5    -0.123774454192E+04   -0.12372E+01   -0.12349E+01  2412   0.407E+00    0.644E+01
RMM:   6    -0.122358685422E+04    0.14158E+02   -0.80689E+00  1589   0.313E+00    0.523E+01
RMM:   7    -0.118540705870E+04    0.38180E+02   -0.61043E+01  1587   0.863E+00    0.326E+01
RMM:   8    -0.117905191462E+04    0.63551E+01   -0.66362E+00  1604   0.291E+00    0.261E+01
RMM:   9    -0.117212481582E+04    0.69271E+01   -0.21328E+01  1588   0.518E+00    0.159E+01
RMM:  10    -0.117371051855E+04   -0.15857E+01   -0.11359E+01  1587   0.384E+00    0.945E+00
RMM:  11    -0.117214076967E+04    0.15697E+01   -0.13515E+00  1599   0.109E+00    0.565E+00
RMM:  12    -0.117214925205E+04   -0.84824E-02   -0.26462E+00  1590   0.155E+00    0.906E+00
RMM:  13    -0.117186146165E+04    0.28779E+00   -0.74182E-02  1662   0.280E-01    0.477E+00
RMM:  14    -0.117159928030E+04    0.26218E+00   -0.51092E-01  1589   0.346E-01    0.107E+00
RMM:  15    -0.117158462472E+04    0.14656E-01   -0.10683E-01  1596   0.208E-01    0.101E+00
RMM:  16    -0.117157337294E+04    0.11252E-01   -0.38056E-02  1606   0.160E-01    0.429E-01
RMM:  17    -0.117157610386E+04   -0.27309E-02   -0.59167E-03  1621   0.636E-02    0.491E-01
RMM:  18    -0.117157345376E+04    0.26501E-02   -0.27726E-03  1621   0.501E-02    0.317E-01
RMM:  19    -0.117157253831E+04    0.91545E-03   -0.14937E-03  1350   0.345E-02    0.224E-01
RMM:  20    -0.117157303959E+04   -0.50128E-03   -0.33064E-04  1165   0.207E-02    0.233E-01
RMM:  21    -0.117157269454E+04    0.34505E-03   -0.36257E-04  1089   0.163E-02    0.150E-01
RMM:  22    -0.117157260084E+04    0.93703E-04   -0.85471E-05  1027   0.809E-03
   1 F= -.11786793E+04 E0= -.11786793E+04  d E =-.117868E+04  mag=     1.9893
       N       E                     dE             d eps       ncg     rms          rms(c)
DAV:   1    -0.117138954003E+04    0.18315E+00   -0.46669E+01  1656   0.482E+00    0.635E+00
RMM:   2    -0.117149881584E+04   -0.10928E+00   -0.11859E+00  1618   0.715E-01    0.603E+00
RMM:   3    -0.117147798977E+04    0.20826E-01   -0.57127E-02  1666   0.174E-01    0.436E+00
RMM:   4    -0.117147716703E+04    0.82274E-03   -0.21454E-01  1635   0.318E-01    0.112E+00
RMM:   5    -0.117147515280E+04    0.20142E-02   -0.43605E-02  1570   0.156E-01    0.408E-01
RMM:   6    -0.117147431516E+04    0.83764E-03   -0.32956E-03  1489   0.447E-02    0.210E-01
RMM:   7    -0.117147351662E+04    0.79854E-03   -0.28007E-03  1481   0.413E-02    0.116E-01
RMM:   8    -0.117147340919E+04    0.10744E-03   -0.42651E-04  1120   0.179E-02    0.773E-02
RMM:   9    -0.117147333428E+04    0.74906E-04   -0.29142E-04  1060   0.135E-02
   2 F= -.11785841E+04 E0= -.11785841E+04  d E =0.951543E-01  mag=     2.0000
       N       E                     dE             d eps       ncg     rms          rms(c)
DAV:   1    -0.117158033868E+04   -0.10693E+00   -0.18460E+01  1584   0.312E+00    0.405E+00
RMM:   2    -0.117161886746E+04   -0.38529E-01   -0.44942E-01  1613   0.463E-01    0.412E+00
RMM:   3    -0.117162119386E+04   -0.23264E-02   -0.18205E-02  1521   0.763E-02    0.448E+00
RMM:   4    -0.117160933994E+04    0.11854E-01   -0.15487E-01  1621   0.276E-01    0.631E-01
RMM:   5    -0.117160963333E+04   -0.29339E-03   -0.77583E-03  1512   0.585E-02    0.448E-01
RMM:   6    -0.117160919677E+04    0.43656E-03   -0.16178E-03  1337   0.309E-02    0.344E-01
RMM:   7    -0.117160796685E+04    0.12299E-02   -0.65546E-03  1475   0.582E-02    0.121E-01
RMM:   8    -0.117160792205E+04    0.44805E-04   -0.45944E-04  1122   0.176E-02
   3 F= -.11787161E+04 E0= -.11787161E+04  d E =-.368221E-01  mag=     2.0000
       N       E                     dE             d eps       ncg     rms          rms(c)
DAV:   1    -0.117160945178E+04   -0.14849E-02   -0.70933E-01  1728   0.116E+00    0.316E-01
RMM:   2    -0.117161015807E+04   -0.70629E-03   -0.13712E-02  1594   0.155E-01    0.284E-01
RMM:   3    -0.117160951099E+04    0.64708E-03   -0.10905E-03  1549   0.358E-02    0.231E-01
RMM:   4    -0.117160904788E+04    0.46311E-03   -0.22581E-03  1597   0.500E-02    0.118E-01
RMM:   5    -0.117160905493E+04   -0.70431E-05   -0.49645E-04  1238   0.238E-02
   4 F= -.11787179E+04 E0= -.11787179E+04  d E =-.177865E-02  mag=     2.0000
       N       E                     dE             d eps       ncg     rms          rms(c)
DAV:   1    -0.117160964389E+04   -0.59600E-03   -0.60151E-02  1656   0.339E-01    0.951E-02
RMM:   2    -0.117160964447E+04   -0.58179E-06   -0.11875E-03  1404   0.438E-02    0.833E-02
RMM:   3    -0.117160950834E+04    0.13613E-03   -0.13990E-04  1026   0.147E-02    0.619E-02
RMM:   4    -0.117160944074E+04    0.67605E-04   -0.23727E-04  1109   0.175E-02
   5 F= -.11787181E+04 E0= -.11787181E+04  d E =-.197618E-02  mag=     2.0000
       N       E                     dE             d eps       ncg     rms          rms(c)
DAV:   1    -0.117161112828E+04   -0.16199E-02   -0.24735E-01  1728   0.646E-01    0.163E-01
RMM:   2    -0.117161138261E+04   -0.25432E-03   -0.47878E-03  1608   0.817E-02    0.139E-01
RMM:   3    -0.117161119493E+04    0.18767E-03   -0.27782E-04  1119   0.190E-02    0.112E-01
RMM:   4    -0.117161109613E+04    0.98804E-04   -0.26387E-04  1154   0.187E-02
   6 F= -.11787199E+04 E0= -.11787199E+04  d E =-.183293E-02  mag=     2.0000
       N       E                     dE             d eps       ncg     rms          rms(c)
DAV:   1    -0.117161122068E+04   -0.25751E-04   -0.39831E-01  1656   0.817E-01    0.232E-01
RMM:   2    -0.117161165267E+04   -0.43198E-03   -0.78523E-03  1624   0.103E-01    0.199E-01
RMM:   3    -0.117161139575E+04    0.25691E-03   -0.48292E-04  1205   0.240E-02    0.159E-01
RMM:   4    -0.117161127751E+04    0.11824E-03   -0.34125E-04  1222   0.214E-02    0.106E-01
RMM:   5    -0.117161129158E+04   -0.14074E-04   -0.43294E-04  1277   0.237E-02
   7 F= -.11787203E+04 E0= -.11787203E+04  d E =-.226420E-02  mag=     2.0000
       N       E                     dE             d eps       ncg     rms          rms(c)
DAV:   1    -0.117161195696E+04   -0.67945E-03   -0.98812E-02  1728   0.511E-01    0.111E-01
RMM:   2    -0.117161209827E+04   -0.14132E-03   -0.25296E-03  1584   0.755E-02    0.103E-01
RMM:   3    -0.117161198906E+04    0.10921E-03   -0.11684E-04  1047   0.160E-02    0.863E-02
RMM:   4    -0.117161184487E+04    0.14419E-03   -0.74412E-04  1551   0.311E-02    0.356E-02
RMM:   5    -0.117161183809E+04    0.67834E-05   -0.31854E-05   985   0.846E-03
   8 F= -.11787208E+04 E0= -.11787208E+04  d E =-.507515E-03  mag=     2.0000
       N       E                     dE             d eps       ncg     rms          rms(c)
DAV:   1    -0.117161198896E+04   -0.14410E-03   -0.96493E-03  1728   0.160E-01    0.369E-02
RMM:   2    -0.117161199273E+04   -0.37680E-05   -0.21898E-04  1083   0.231E-02
   9 F= -.11787210E+04 E0= -.11787210E+04  d E =-.673654E-03  mag=     2.0000
