       N       E                     dE             d eps       ncg     rms          rms(c)
DAV:   1     0.467201087781E+04    0.46720E+04   -0.17999E+05  1888   0.948E+02
DAV:   2    -0.761851936133E+02   -0.47482E+04   -0.43356E+04  2400   0.215E+02
DAV:   3    -0.119593880356E+04   -0.11198E+04   -0.11132E+04  2080   0.112E+02
DAV:   4    -0.124260197337E+04   -0.46663E+02   -0.46373E+02  1984   0.300E+01
DAV:   5    -0.124380861182E+04   -0.12066E+01   -0.12038E+01  2336   0.456E+00    0.854E+01
RMM:   6    -0.122707335929E+04    0.16735E+02   -0.10118E+02  1611   0.144E+01    0.910E+01
RMM:   7    -0.121135533926E+04    0.15718E+02   -0.15239E+01  1544   0.609E+00    0.588E+01
RMM:   8    -0.119777838036E+04    0.13577E+02   -0.11713E+01  1551   0.499E+00    0.414E+01
RMM:   9    -0.118336243836E+04    0.14416E+02   -0.13340E+01  1562   0.474E+00    0.311E+01
RMM:  10    -0.117125666231E+04    0.12106E+02   -0.14145E+01  1602   0.513E+00    0.242E+01
RMM:  11    -0.116580763667E+04    0.54490E+01   -0.13758E+01  1604   0.533E+00    0.186E+01
RMM:  12    -0.116581215577E+04   -0.45191E-02   -0.36085E+00  1553   0.309E+00    0.136E+01
RMM:  13    -0.116626396347E+04   -0.45181E+00   -0.23853E+00  1544   0.215E+00    0.792E+00
RMM:  14    -0.116649990508E+04   -0.23594E+00   -0.74295E-01  1618   0.134E+00    0.528E+00
RMM:  15    -0.116607314823E+04    0.42676E+00   -0.93685E-01  1552   0.130E+00    0.284E+00
RMM:  16    -0.116605603753E+04    0.17111E-01   -0.21781E-01  1545   0.736E-01    0.112E+00
RMM:  17    -0.116606485307E+04   -0.88155E-02   -0.29156E-02  1543   0.315E-01    0.419E-01
RMM:  18    -0.116606688449E+04   -0.20314E-02   -0.12214E-02  1596   0.175E-01    0.370E-01
RMM:  19    -0.116606703113E+04   -0.14663E-03   -0.29186E-03  1595   0.916E-02    0.274E-01
RMM:  20    -0.116606695802E+04    0.73106E-04   -0.16793E-03  1661   0.532E-02    0.181E-01
RMM:  21    -0.116606698612E+04   -0.28098E-04   -0.21279E-04  1628   0.229E-02    0.152E-01
RMM:  22    -0.116606704895E+04   -0.62825E-04   -0.37621E-04  1554   0.286E-02    0.132E-01
RMM:  23    -0.116606722336E+04   -0.17441E-03   -0.24954E-04  1570   0.209E-02    0.589E-02
RMM:  24    -0.116606724062E+04   -0.17265E-04   -0.29509E-05  1591   0.866E-03    0.480E-02
RMM:  25    -0.116606723982E+04    0.79993E-06   -0.28814E-05  1537   0.740E-03    0.261E-02
RMM:  26    -0.116606723515E+04    0.46745E-05   -0.19531E-05  1556   0.593E-03    0.120E-02
RMM:  27    -0.116606723431E+04    0.83444E-06   -0.50418E-06  1201   0.328E-03
   1 F= -.11731303E+04 E0= -.11731209E+04  d E =-.117313E+04  mag=    -1.8163
