       N       E                     dE             d eps       ncg     rms          rms(c)
DAV:   1     0.496973540295E+04    0.49697E+04   -0.17561E+05  1872   0.924E+02
DAV:   2    -0.475898866309E+02   -0.50173E+04   -0.46003E+04  2592   0.209E+02
DAV:   3    -0.120194243340E+04   -0.11544E+04   -0.11494E+04  2088   0.110E+02
DAV:   4    -0.124877509390E+04   -0.46833E+02   -0.46571E+02  2016   0.291E+01
DAV:   5    -0.124992899149E+04   -0.11539E+01   -0.11509E+01  2412   0.414E+00    0.834E+01
RMM:   6    -0.123723299680E+04    0.12696E+02   -0.71272E+00  1584   0.308E+00    0.730E+01
RMM:   7    -0.118938711251E+04    0.47846E+02   -0.90128E+01  1584   0.107E+01    0.480E+01
RMM:   8    -0.118600006704E+04    0.33870E+01   -0.57957E+01  1584   0.863E+00    0.206E+01
RMM:   9    -0.118812383871E+04   -0.21238E+01   -0.66341E+00  1594   0.305E+00    0.121E+01
RMM:  10    -0.118504891939E+04    0.30749E+01   -0.59905E+00  1584   0.265E+00    0.423E+00
RMM:  11    -0.118476253388E+04    0.28639E+00   -0.75245E-01  1584   0.985E-01    0.240E+00
RMM:  12    -0.118467911699E+04    0.83417E-01   -0.34351E-01  1584   0.643E-01    0.980E-01
RMM:  13    -0.118468659406E+04   -0.74771E-02   -0.33215E-02  1594   0.226E-01    0.515E-01
RMM:  14    -0.118468768303E+04   -0.10890E-02   -0.10899E-02  1584   0.118E-01    0.402E-01
RMM:  15    -0.118468500133E+04    0.26817E-02   -0.16748E-02  1584   0.144E-01    0.384E-01
RMM:  16    -0.118468495017E+04    0.51161E-04   -0.75277E-04  1460   0.361E-02
   1 F= -.11921330E+04 E0= -.11921259E+04  d E =-.119213E+04  mag=    -0.7653
       N       E                     dE             d eps       ncg     rms          rms(c)
DAV:   1    -0.118468405037E+04    0.95096E-03   -0.62376E-01  1692   0.116E+00    0.658E-01
RMM:   2    -0.118468514358E+04   -0.10932E-02   -0.18098E-02  1584   0.170E-01    0.651E-01
RMM:   3    -0.118468488789E+04    0.25568E-03   -0.93978E-04  1414   0.362E-02    0.627E-01
RMM:   4    -0.118468402674E+04    0.86115E-03   -0.21683E-03  1584   0.515E-02    0.300E-01
RMM:   5    -0.118468425232E+04   -0.22558E-03   -0.21587E-03  1584   0.511E-02    0.148E-01
RMM:   6    -0.118468407390E+04    0.17842E-03   -0.27047E-04  1131   0.176E-02    0.670E-02
RMM:   7    -0.118468404907E+04    0.24830E-04   -0.79646E-05  1005   0.108E-02
   2 F= -.11921330E+04 E0= -.11921261E+04  d E =0.838644E-05  mag=    -0.7683
       N       E                     dE             d eps       ncg     rms          rms(c)
DAV:   1    -0.118468563249E+04   -0.15586E-02   -0.14965E-01  1764   0.569E-01    0.307E-01
RMM:   2    -0.118468577205E+04   -0.13956E-03   -0.37792E-03  1584   0.808E-02    0.290E-01
RMM:   3    -0.118468565464E+04    0.11741E-03   -0.16348E-04  1061   0.165E-02    0.267E-01
RMM:   4    -0.118468549416E+04    0.16048E-03   -0.17627E-03  1584   0.463E-02    0.609E-02
RMM:   5    -0.118468548461E+04    0.95544E-05   -0.37475E-05  1004   0.924E-03
   3 F= -.11921340E+04 E0= -.11921271E+04  d E =-.989938E-03  mag=    -0.7697
