       N       E                     dE             d eps       ncg     rms          rms(c)
DAV:   1     0.480155193736E+04    0.48016E+04   -0.17009E+05  1872   0.899E+02
DAV:   2    -0.771608339884E+02   -0.48787E+04   -0.44280E+04  2520   0.205E+02
DAV:   3    -0.118851366344E+04   -0.11114E+04   -0.11063E+04  2124   0.108E+02
DAV:   4    -0.123384077559E+04   -0.45327E+02   -0.45111E+02  2052   0.295E+01
DAV:   5    -0.123513623676E+04   -0.12955E+01   -0.12928E+01  2304   0.467E+00    0.623E+01
RMM:   6    -0.122002795299E+04    0.15108E+02   -0.90098E+00  1633   0.339E+00    0.511E+01
RMM:   7    -0.118620977896E+04    0.33818E+02   -0.50022E+01  1615   0.810E+00    0.307E+01
RMM:   8    -0.117442163242E+04    0.11788E+02   -0.13758E+01  1585   0.457E+00    0.238E+01
RMM:   9    -0.116929484008E+04    0.51268E+01   -0.40441E+01  1586   0.730E+00    0.103E+01
RMM:  10    -0.116951906773E+04   -0.22423E+00   -0.28576E+00  1658   0.270E+00    0.688E+00
RMM:  11    -0.116919210753E+04    0.32696E+00   -0.21100E-01  1694   0.585E-01    0.573E+00
RMM:  12    -0.116857606556E+04    0.61604E+00   -0.25957E+00  1588   0.175E+00    0.984E-01
RMM:  13    -0.116857178134E+04    0.42842E-02   -0.49932E-02  1599   0.390E-01    0.670E-01
RMM:  14    -0.116857198709E+04   -0.20575E-03   -0.11809E-02  1670   0.120E-01    0.497E-01
RMM:  15    -0.116856979001E+04    0.21971E-02   -0.12805E-02  1586   0.136E-01    0.282E-01
RMM:  16    -0.116856999857E+04   -0.20856E-03   -0.14361E-03  1617   0.607E-02    0.180E-01
RMM:  17    -0.116857019949E+04   -0.20092E-03   -0.49129E-04  1319   0.262E-02    0.133E-01
RMM:  18    -0.116857019535E+04    0.41372E-05   -0.62270E-04  1518   0.306E-02
   1 F= -.11755807E+04 E0= -.11755807E+04  d E =-.117558E+04  mag=    -0.0035
       N       E                     dE             d eps       ncg     rms          rms(c)
DAV:   1    -0.116856781952E+04    0.23800E-02   -0.54596E-01  1800   0.129E+00    0.205E-01
RMM:   2    -0.116857014074E+04   -0.23212E-02   -0.28497E-02  1707   0.219E-01    0.222E-01
RMM:   3    -0.116857006034E+04    0.80398E-04   -0.19187E-03  1708   0.676E-02    0.247E-01
RMM:   4    -0.116857005378E+04    0.65586E-05   -0.26540E-04  1129   0.204E-02
   2 F= -.11755807E+04 E0= -.11755807E+04  d E =0.560170E-06  mag=    -0.0017
       N       E                     dE             d eps       ncg     rms          rms(c)
DAV:   1    -0.116857052608E+04   -0.46574E-03   -0.11717E-01  1656   0.595E-01    0.190E-01
RMM:   2    -0.116857106361E+04   -0.53753E-03   -0.58151E-03  1656   0.101E-01    0.122E-01
RMM:   3    -0.116857100747E+04    0.56138E-04   -0.54602E-04  1287   0.358E-02
   3 F= -.11755816E+04 E0= -.11755816E+04  d E =-.885592E-03  mag=     0.0006
