       N       E                     dE             d eps       ncg     rms          rms(c)
DAV:   1     0.494607016371E+04    0.49461E+04   -0.17356E+05  1872   0.915E+02
DAV:   2    -0.385481328918E+02   -0.49846E+04   -0.45572E+04  2520   0.207E+02
DAV:   3    -0.119394999990E+04   -0.11554E+04   -0.11510E+04  2088   0.110E+02
DAV:   4    -0.124076448719E+04   -0.46814E+02   -0.46562E+02  1980   0.293E+01
DAV:   5    -0.124197862331E+04   -0.12141E+01   -0.12110E+01  2304   0.439E+00    0.898E+01
RMM:   6    -0.122857354888E+04    0.13405E+02   -0.79630E+00  1584   0.318E+00    0.793E+01
RMM:   7    -0.118082209974E+04    0.47751E+02   -0.10152E+02  1584   0.113E+01    0.521E+01
RMM:   8    -0.117952400995E+04    0.12981E+01   -0.16117E+01  1587   0.421E+00    0.366E+01
RMM:   9    -0.118267294139E+04   -0.31489E+01   -0.42121E+01  1584   0.732E+00    0.138E+01
RMM:  10    -0.117823223277E+04    0.44407E+01   -0.45170E+00  1584   0.219E+00    0.103E+01
RMM:  11    -0.117784418221E+04    0.38805E+00   -0.10681E+00  1584   0.951E-01    0.619E+00
RMM:  12    -0.117745596771E+04    0.38821E+00   -0.10582E+00  1584   0.951E-01    0.304E+00
RMM:  13    -0.117724706206E+04    0.20891E+00   -0.71506E-01  1584   0.936E-01    0.791E-01
RMM:  14    -0.117723864974E+04    0.84123E-02   -0.37071E-02  1620   0.209E-01    0.495E-01
RMM:  15    -0.117723751610E+04    0.11336E-02   -0.73434E-03  1604   0.921E-02    0.524E-01
RMM:  16    -0.117723731210E+04    0.20400E-03   -0.78468E-04  1547   0.335E-02    0.452E-01
RMM:  17    -0.117723780295E+04   -0.49085E-03   -0.16305E-03  1532   0.395E-02    0.418E-01
RMM:  18    -0.117723712749E+04    0.67547E-03   -0.29398E-03  1584   0.612E-02    0.112E-01
RMM:  19    -0.117723716480E+04   -0.37312E-04   -0.17359E-04  1085   0.166E-02
   1 F= -.11845784E+04 E0= -.11845784E+04  d E =-.118458E+04  mag=    -0.0010
       N       E                     dE             d eps       ncg     rms          rms(c)
DAV:   1    -0.117723469396E+04    0.24335E-02   -0.65848E-01  1692   0.128E+00    0.567E-01
RMM:   2    -0.117723628037E+04   -0.15864E-02   -0.19406E-02  1584   0.189E-01    0.616E-01
RMM:   3    -0.117723640286E+04   -0.12249E-03   -0.12612E-03  1512   0.425E-02    0.658E-01
RMM:   4    -0.117723583197E+04    0.57089E-03   -0.75677E-04  1512   0.316E-02    0.487E-01
RMM:   5    -0.117723564596E+04    0.18600E-03   -0.22695E-03  1584   0.512E-02    0.214E-01
RMM:   6    -0.117723549246E+04    0.15350E-03   -0.23233E-04  1082   0.153E-02    0.169E-01
RMM:   7    -0.117723548712E+04    0.53444E-05   -0.85152E-05  1011   0.107E-02
   2 F= -.11845772E+04 E0= -.11845772E+04  d E =0.120295E-02  mag=    -0.0000
       N       E                     dE             d eps       ncg     rms          rms(c)
DAV:   1    -0.117723753269E+04   -0.20402E-02   -0.24290E-01  1620   0.774E-01    0.343E-01
RMM:   2    -0.117723801082E+04   -0.47814E-03   -0.61478E-03  1584   0.112E-01    0.309E-01
RMM:   3    -0.117723794439E+04    0.66437E-04   -0.31897E-04  1166   0.234E-02
   3 F= -.11845794E+04 E0= -.11845794E+04  d E =-.965690E-03  mag=     0.0000
