       N       E                     dE             d eps       ncg     rms          rms(c)
DAV:   1     0.475970325280E+04    0.47597E+04   -0.17115E+05  1824   0.925E+02
DAV:   2    -0.621288168199E+02   -0.48218E+04   -0.43685E+04  2464   0.213E+02
DAV:   3    -0.118062916440E+04   -0.11185E+04   -0.11104E+04  1984   0.111E+02
DAV:   4    -0.122989836309E+04   -0.49269E+02   -0.48998E+02  2048   0.326E+01
DAV:   5    -0.123111876656E+04   -0.12204E+01   -0.12176E+01  2304   0.445E+00    0.700E+01
RMM:   6    -0.121353488371E+04    0.17584E+02   -0.11039E+01  1564   0.404E+00    0.525E+01
RMM:   7    -0.119235582401E+04    0.21179E+02   -0.11685E+02  1624   0.106E+01    0.490E+01
RMM:   8    -0.118704379685E+04    0.53120E+01   -0.12337E+01  1571   0.482E+00    0.457E+01
RMM:   9    -0.118056869942E+04    0.64751E+01   -0.28115E+00  1616   0.225E+00    0.373E+01
RMM:  10    -0.117270088155E+04    0.78678E+01   -0.11423E+01  1607   0.360E+00    0.276E+01
RMM:  11    -0.116634470318E+04    0.63562E+01   -0.28961E+01  1940   0.652E+00    0.234E+01
RMM:  12    -0.116398554548E+04    0.23592E+01   -0.48019E+00  1610   0.309E+00    0.155E+01
RMM:  13    -0.116208708501E+04    0.18985E+01   -0.40532E+00  1738   0.243E+00    0.763E+00
RMM:  14    -0.116185321481E+04    0.23387E+00   -0.57033E-01  1654   0.102E+00    0.637E+00
RMM:  15    -0.116199610421E+04   -0.14289E+00   -0.78476E-01  1572   0.109E+00    0.381E+00
RMM:  16    -0.116215858881E+04   -0.16248E+00   -0.50655E-01  1604   0.889E-01    0.224E+00
RMM:  17    -0.116233622330E+04   -0.17763E+00   -0.20911E-01  1639   0.549E-01    0.148E+00
RMM:  18    -0.116234556418E+04   -0.93409E-02   -0.85326E-02  1571   0.383E-01    0.111E+00
RMM:  19    -0.116235417243E+04   -0.86082E-02   -0.22907E-02  1659   0.222E-01    0.848E-01
RMM:  20    -0.116235817282E+04   -0.40004E-02   -0.71482E-03  1824   0.112E-01    0.722E-01
RMM:  21    -0.116236338112E+04   -0.52083E-02   -0.33432E-03  1576   0.691E-02    0.544E-01
RMM:  22    -0.116236886539E+04   -0.54843E-02   -0.75662E-03  1650   0.790E-02    0.392E-01
RMM:  23    -0.116237103220E+04   -0.21668E-02   -0.54019E-03  1692   0.773E-02    0.314E-01
RMM:  24    -0.116237193805E+04   -0.90585E-03   -0.12853E-03  1612   0.477E-02    0.244E-01
RMM:  25    -0.116237186631E+04    0.71736E-04   -0.16290E-03  1627   0.457E-02    0.172E-01
RMM:  26    -0.116237227947E+04   -0.41316E-03   -0.65172E-04  1815   0.310E-02    0.151E-01
RMM:  27    -0.116237254558E+04   -0.26611E-03   -0.52533E-04  1739   0.268E-02    0.196E-01
RMM:  28    -0.116237262111E+04   -0.75529E-04   -0.13016E-04  1860   0.139E-02    0.191E-01
RMM:  29    -0.116237250377E+04    0.11734E-03   -0.89060E-05  1599   0.111E-02    0.132E-01
RMM:  30    -0.116237246906E+04    0.34710E-04   -0.13512E-04  1658   0.112E-02    0.897E-02
RMM:  31    -0.116237258280E+04   -0.11374E-03   -0.69977E-05  1653   0.903E-03    0.673E-02
RMM:  32    -0.116237263853E+04   -0.55734E-04   -0.29080E-05  1514   0.618E-03    0.544E-02
RMM:  33    -0.116237268126E+04   -0.42730E-04   -0.58672E-05  1718   0.899E-03    0.511E-02
RMM:  34    -0.116237268979E+04   -0.85273E-05   -0.18624E-05  1510   0.532E-03    0.442E-02
RMM:  35    -0.116237270734E+04   -0.17553E-04   -0.21712E-05  1591   0.582E-03    0.260E-02
RMM:  36    -0.116237270457E+04    0.27767E-05   -0.11701E-05  1345   0.421E-03    0.147E-02
RMM:  37    -0.116237270919E+04   -0.46213E-05   -0.40083E-06  1173   0.281E-03    0.128E-02
RMM:  38    -0.116237270929E+04   -0.10196E-06   -0.12899E-06  1050   0.199E-03
   1 F= -.11623727E+04 E0= -.11623727E+04  d E =-.116237E+04  mag=    -1.0005
       N       E                     dE             d eps       ncg     rms          rms(c)
DAV:   1    -0.116234287402E+04    0.29835E-01   -0.63489E+00  1760   0.397E+00    0.707E-01
RMM:   2    -0.116236073724E+04   -0.17863E-01   -0.21721E-01  1565   0.700E-01    0.108E+00
RMM:   3    -0.116236515256E+04   -0.44153E-02   -0.47570E-02  1842   0.279E-01    0.984E-01
RMM:   4    -0.116236520005E+04   -0.47492E-04   -0.71262E-03  1884   0.102E-01    0.101E+00
RMM:   5    -0.116236380621E+04    0.13938E-02   -0.16473E-03  1589   0.493E-02    0.947E-01
RMM:   6    -0.116236449064E+04   -0.68443E-03   -0.38288E-02  1562   0.213E-01    0.717E-01
RMM:   7    -0.116236469888E+04   -0.20824E-03   -0.66344E-03  1767   0.113E-01    0.709E-01
RMM:   8    -0.116236393449E+04    0.76439E-03   -0.10278E-03  1818   0.434E-02    0.660E-01
RMM:   9    -0.116236257729E+04    0.13572E-02   -0.12566E-03  1582   0.394E-02    0.567E-01
RMM:  10    -0.116236230968E+04    0.26761E-03   -0.62910E-04  1648   0.293E-02    0.484E-01
RMM:  11    -0.116236212777E+04    0.18191E-03   -0.14578E-04  1773   0.163E-02    0.436E-01
RMM:  12    -0.116236191524E+04    0.21254E-03   -0.14948E-04  1568   0.135E-02    0.346E-01
RMM:  13    -0.116236166739E+04    0.24785E-03   -0.33111E-04  1648   0.191E-02    0.244E-01
RMM:  14    -0.116236162355E+04    0.43839E-04   -0.97730E-05  1724   0.120E-02    0.179E-01
RMM:  15    -0.116236157597E+04    0.47580E-04   -0.10067E-04  1679   0.116E-02    0.988E-02
RMM:  16    -0.116236156945E+04    0.65255E-05   -0.16862E-04  1753   0.140E-02    0.189E-02
RMM:  17    -0.116236157694E+04   -0.74916E-05   -0.27654E-05  1723   0.673E-03    0.123E-02
RMM:  18    -0.116236157754E+04   -0.59986E-06   -0.35181E-06  1147   0.308E-03
   2 F= -.11623616E+04 E0= -.11623616E+04  d E =0.111318E-01  mag=    -1.0000
       N       E                     dE             d eps       ncg     rms          rms(c)
DAV:   1    -0.116237584424E+04   -0.14267E-01   -0.22895E+00  1792   0.240E+00    0.444E-01
RMM:   2    -0.116238166293E+04   -0.58187E-02   -0.72987E-02  1556   0.409E-01    0.646E-01
RMM:   3    -0.116238291340E+04   -0.12505E-02   -0.13682E-02  1796   0.164E-01    0.590E-01
RMM:   4    -0.116238294435E+04   -0.30950E-04   -0.25915E-03  1842   0.629E-02    0.606E-01
RMM:   5    -0.116238252017E+04    0.42419E-03   -0.64812E-04  1575   0.323E-02    0.571E-01
RMM:   6    -0.116238279041E+04   -0.27024E-03   -0.10353E-02  1681   0.107E-01    0.526E-01
RMM:   7    -0.116238296413E+04   -0.17372E-03   -0.22100E-03  1679   0.610E-02    0.513E-01
RMM:   8    -0.116238254898E+04    0.41515E-03   -0.48295E-04  1774   0.294E-02    0.465E-01
RMM:   9    -0.116238218902E+04    0.35996E-03   -0.46895E-04  1617   0.241E-02    0.393E-01
RMM:  10    -0.116238209745E+04    0.91577E-04   -0.18495E-04  1727   0.165E-02    0.337E-01
RMM:  11    -0.116238205313E+04    0.44318E-04   -0.24886E-05  1588   0.728E-03    0.307E-01
RMM:  12    -0.116238188829E+04    0.16483E-03   -0.28015E-04  1747   0.176E-02    0.182E-01
RMM:  13    -0.116238188340E+04    0.48979E-05   -0.35325E-05  1705   0.729E-03    0.162E-01
RMM:  14    -0.116238188358E+04   -0.18824E-06   -0.98116E-06  1431   0.455E-03
   3 F= -.11623819E+04 E0= -.11623819E+04  d E =-.917430E-02  mag=    -1.0000
       N       E                     dE             d eps       ncg     rms          rms(c)
DAV:   1    -0.116237982024E+04    0.20632E-02   -0.15681E+00  1728   0.207E+00    0.296E-01
RMM:   2    -0.116238227681E+04   -0.24566E-02   -0.30660E-02  1536   0.309E-01    0.422E-01
RMM:   3    -0.116238294112E+04   -0.66431E-03   -0.71475E-03  1762   0.128E-01    0.380E-01
RMM:   4    -0.116238290121E+04    0.39909E-04   -0.11210E-03  1879   0.485E-02    0.390E-01
RMM:   5    -0.116238255292E+04    0.34829E-03   -0.35199E-04  1602   0.225E-02    0.368E-01
RMM:   6    -0.116238314755E+04   -0.59463E-03   -0.86116E-03  2022   0.893E-02    0.337E-01
RMM:   7    -0.116238239164E+04    0.75591E-03   -0.75718E-04  1585   0.319E-02    0.303E-01
RMM:   8    -0.116238241555E+04   -0.23910E-04   -0.43927E-04  1621   0.277E-02    0.287E-01
RMM:   9    -0.116238243329E+04   -0.17741E-04   -0.76178E-05  1721   0.141E-02    0.254E-01
RMM:  10    -0.116238233552E+04    0.97772E-04   -0.73106E-05  1596   0.998E-03    0.221E-01
RMM:  11    -0.116238224469E+04    0.90827E-04   -0.68797E-05  1657   0.949E-03    0.188E-01
RMM:  12    -0.116238221428E+04    0.30410E-04   -0.20582E-05  1648   0.634E-03    0.158E-01
RMM:  13    -0.116238220513E+04    0.91537E-05   -0.43189E-06  1189   0.334E-03    0.149E-01
RMM:  14    -0.116238216122E+04    0.43907E-04   -0.38218E-05  1735   0.681E-03    0.105E-01
RMM:  15    -0.116238213836E+04    0.22859E-04   -0.44763E-05  1787   0.736E-03    0.676E-02
RMM:  16    -0.116238213547E+04    0.28945E-05   -0.79729E-06  1450   0.398E-03    0.515E-02
RMM:  17    -0.116238213023E+04    0.52402E-05   -0.14679E-05  1554   0.483E-03    0.220E-02
RMM:  18    -0.116238213054E+04   -0.31049E-06   -0.61927E-06  1390   0.344E-03
   4 F= -.11623821E+04 E0= -.11623821E+04  d E =-.246954E-03  mag=    -1.0000
       N       E                     dE             d eps       ncg     rms          rms(c)
DAV:   1    -0.116238443067E+04   -0.23004E-02   -0.38010E-01  1696   0.102E+00    0.149E-01
RMM:   2    -0.116238500704E+04   -0.57637E-03   -0.74099E-03  1536   0.152E-01    0.209E-01
RMM:   3    -0.116238515440E+04   -0.14736E-03   -0.17197E-03  1773   0.629E-02    0.190E-01
RMM:   4    -0.116238513908E+04    0.15326E-04   -0.25952E-04  1862   0.235E-02    0.195E-01
RMM:   5    -0.116238506191E+04    0.77167E-04   -0.10701E-04  1596   0.121E-02    0.185E-01
RMM:   6    -0.116238524206E+04   -0.18015E-03   -0.20223E-03  2057   0.432E-02    0.187E-01
RMM:   7    -0.116238506301E+04    0.17905E-03   -0.16068E-04  1590   0.149E-02    0.171E-01
RMM:   8    -0.116238507312E+04   -0.10105E-04   -0.11386E-04  1603   0.144E-02    0.170E-01
RMM:   9    -0.116238508782E+04   -0.14706E-04   -0.21393E-05  1665   0.752E-03    0.152E-01
RMM:  10    -0.116238505922E+04    0.28601E-04   -0.21973E-05  1544   0.555E-03    0.132E-01
RMM:  11    -0.116238503121E+04    0.28012E-04   -0.18387E-05  1549   0.513E-03    0.113E-01
RMM:  12    -0.116238502329E+04    0.79231E-05   -0.50253E-06  1279   0.358E-03    0.982E-02
RMM:  13    -0.116238501901E+04    0.42795E-05   -0.23382E-06  1106   0.254E-03    0.903E-02
RMM:  14    -0.116238500319E+04    0.15816E-04   -0.22129E-05  1676   0.522E-03    0.601E-02
RMM:  15    -0.116238499921E+04    0.39788E-05   -0.11020E-05  1493   0.439E-03    0.413E-02
RMM:  16    -0.116238499803E+04    0.11803E-05   -0.52455E-06  1314   0.322E-03    0.274E-02
RMM:  17    -0.116238499737E+04    0.66160E-06   -0.49895E-06  1232   0.325E-03
   5 F= -.11623850E+04 E0= -.11623850E+04  d E =-.311379E-02  mag=    -1.0000
       N       E                     dE             d eps       ncg     rms          rms(c)
DAV:   1    -0.116238578798E+04   -0.78995E-03   -0.65838E-01  1664   0.136E+00    0.195E-01
RMM:   2    -0.116238650590E+04   -0.71791E-03   -0.10709E-02  1538   0.185E-01    0.196E-01
RMM:   3    -0.116238663095E+04   -0.12505E-03   -0.25148E-03  1773   0.794E-02    0.180E-01
RMM:   4    -0.116238642711E+04    0.20384E-03   -0.35710E-04  1697   0.301E-02    0.161E-01
RMM:   5    -0.116238609055E+04    0.33656E-03   -0.22095E-03  1677   0.525E-02    0.752E-02
RMM:   6    -0.116238607189E+04    0.18657E-04   -0.25648E-04  1733   0.244E-02    0.651E-02
RMM:   7    -0.116238602652E+04    0.45373E-04   -0.10209E-04  1611   0.129E-02    0.484E-02
RMM:   8    -0.116238603262E+04   -0.61086E-05   -0.53307E-05  1672   0.902E-03    0.340E-02
RMM:   9    -0.116238603224E+04    0.38261E-06   -0.21280E-05  1649   0.635E-03    0.204E-02
RMM:  10    -0.116238602973E+04    0.25135E-05   -0.12255E-05  1549   0.467E-03    0.133E-02
RMM:  11    -0.116238602895E+04    0.77442E-06   -0.24513E-06  1130   0.281E-03
   6 F= -.11623860E+04 E0= -.11623860E+04  d E =-.103158E-02  mag=    -1.0000
       N       E                     dE             d eps       ncg     rms          rms(c)
DAV:   1    -0.116238649661E+04   -0.46688E-03   -0.88170E-02  1728   0.499E-01    0.716E-02
RMM:   2    -0.116238658500E+04   -0.88392E-04   -0.14168E-03  1538   0.674E-02    0.717E-02
RMM:   3    -0.116238659864E+04   -0.13638E-04   -0.33201E-04  1787   0.289E-02    0.660E-02
RMM:   4    -0.116238657252E+04    0.26120E-04   -0.47051E-05  1682   0.109E-02    0.587E-02
RMM:   5    -0.116238653241E+04    0.40106E-04   -0.29338E-04  1687   0.191E-02    0.272E-02
RMM:   6    -0.116238653135E+04    0.10646E-05   -0.33978E-05  1723   0.890E-03    0.233E-02
RMM:   7    -0.116238652742E+04    0.39299E-05   -0.13976E-05  1523   0.476E-03    0.169E-02
RMM:   8    -0.116238652900E+04   -0.15790E-05   -0.68108E-06  1450   0.350E-03    0.120E-02
RMM:   9    -0.116238652888E+04    0.11534E-06   -0.32369E-06  1182   0.289E-03
   7 F= -.11623865E+04 E0= -.11623865E+04  d E =-.153151E-02  mag=    -1.0000
       N       E                     dE             d eps       ncg     rms          rms(c)
DAV:   1    -0.116238640816E+04    0.12084E-03   -0.43975E-01  1600   0.122E+00    0.181E-01
RMM:   2    -0.116238754373E+04   -0.11356E-02   -0.14993E-02  1538   0.167E-01    0.143E-01
RMM:   3    -0.116238769247E+04   -0.14874E-03   -0.24660E-03  1713   0.675E-02    0.124E-01
RMM:   4    -0.116238760223E+04    0.90234E-04   -0.43130E-04  1659   0.300E-02    0.932E-02
RMM:   5    -0.116238750428E+04    0.97952E-04   -0.48578E-04  1550   0.283E-02    0.466E-02
RMM:   6    -0.116238758414E+04   -0.79859E-04   -0.13177E-04  1755   0.174E-02    0.283E-02
RMM:   7    -0.116238760565E+04   -0.21513E-04   -0.27339E-05  1615   0.836E-03    0.176E-02
RMM:   8    -0.116238761646E+04   -0.10804E-04   -0.14829E-05  1510   0.517E-03    0.921E-03
RMM:   9    -0.116238761637E+04    0.89545E-07   -0.80555E-06  1465   0.395E-03
   8 F= -.11623876E+04 E0= -.11623876E+04  d E =-.108749E-02  mag=    -1.0000
       N       E                     dE             d eps       ncg     rms          rms(c)
DAV:   1    -0.116238762685E+04   -0.10396E-04   -0.11994E-02  1728   0.202E-01    0.293E-02
RMM:   2    -0.116238765192E+04   -0.25063E-04   -0.41238E-04  1541   0.276E-02    0.234E-02
RMM:   3    -0.116238765644E+04   -0.45248E-05   -0.68383E-05  1738   0.114E-02    0.201E-02
RMM:   4    -0.116238765589E+04    0.55426E-06   -0.10690E-05  1484   0.494E-03    0.151E-02
RMM:   5    -0.116238765286E+04    0.30301E-05   -0.13518E-05  1542   0.489E-03    0.702E-03
RMM:   6    -0.116238765946E+04   -0.66057E-05   -0.35836E-06  1211   0.305E-03    0.412E-03
RMM:   7    -0.116238766090E+04   -0.14372E-05   -0.71541E-07  1028   0.204E-03    0.279E-03
RMM:   8    -0.116238766136E+04   -0.45503E-06   -0.39466E-07   987   0.104E-03
   9 F= -.11623877E+04 E0= -.11623877E+04  d E =-.113248E-02  mag=    -1.0000
