       N       E                     dE             d eps       ncg     rms          rms(c)
DAV:   1     0.483505827524E+04    0.48351E+04   -0.17019E+05  1872   0.905E+02
DAV:   2    -0.565648651920E+02   -0.48916E+04   -0.44571E+04  2556   0.205E+02
DAV:   3    -0.117673052606E+04   -0.11202E+04   -0.11127E+04  2160   0.108E+02
DAV:   4    -0.122121789941E+04   -0.44487E+02   -0.44266E+02  2016   0.284E+01
DAV:   5    -0.122234729493E+04   -0.11294E+01   -0.11269E+01  2304   0.415E+00    0.646E+01
RMM:   6    -0.120985457184E+04    0.12493E+02   -0.29438E+01  1584   0.539E+00    0.525E+01
RMM:   7    -0.119694274288E+04    0.12912E+02   -0.53711E+00  1584   0.278E+00    0.442E+01
RMM:   8    -0.116320730028E+04    0.33735E+02   -0.60284E+01  1584   0.886E+00    0.240E+01
RMM:   9    -0.115735982831E+04    0.58475E+01   -0.33367E+01  1584   0.655E+00    0.121E+01
RMM:  10    -0.115811756940E+04   -0.75774E+00   -0.30724E+00  1595   0.211E+00    0.894E+00
RMM:  11    -0.115755832533E+04    0.55924E+00   -0.10555E+00  1588   0.104E+00    0.496E+00
RMM:  12    -0.115730406026E+04    0.25427E+00   -0.34853E-01  1584   0.673E-01    0.205E+00
RMM:  13    -0.115721913137E+04    0.84929E-01   -0.35986E-01  1584   0.669E-01    0.945E-01
RMM:  14    -0.115720858308E+04    0.10548E-01   -0.54246E-02  1593   0.255E-01    0.216E-01
RMM:  15    -0.115720856485E+04    0.18231E-04   -0.40542E-03  1609   0.759E-02    0.167E-01
RMM:  16    -0.115720843422E+04    0.13063E-03   -0.14164E-03  1516   0.383E-02    0.118E-01
RMM:  17    -0.115720861182E+04   -0.17760E-03   -0.11770E-03  1300   0.366E-02    0.837E-02
RMM:  18    -0.115720871843E+04   -0.10661E-03   -0.31266E-04  1134   0.221E-02    0.475E-02
RMM:  19    -0.115720870989E+04    0.85371E-05   -0.10036E-04  1021   0.132E-02
   1 F= -.11642834E+04 E0= -.11642751E+04  d E =-.116428E+04  mag=    -0.6993
       N       E                     dE             d eps       ncg     rms          rms(c)
DAV:   1    -0.115720782557E+04    0.89286E-03   -0.50549E-01  1872   0.102E+00    0.181E-01
RMM:   2    -0.115720865663E+04   -0.83105E-03   -0.10100E-02  1584   0.143E-01    0.177E-01
RMM:   3    -0.115720861346E+04    0.43166E-04   -0.62026E-04  1301   0.313E-02
   2 F= -.11642832E+04 E0= -.11642750E+04  d E =0.195369E-03  mag=    -0.7029
       N       E                     dE             d eps       ncg     rms          rms(c)
DAV:   1    -0.115720914435E+04   -0.48773E-03   -0.14251E-01  1764   0.545E-01    0.518E-02
RMM:   2    -0.115720943967E+04   -0.29532E-03   -0.30810E-03  1584   0.834E-02    0.475E-02
RMM:   3    -0.115720942687E+04    0.12795E-04   -0.13080E-04  1039   0.161E-02
   3 F= -.11642840E+04 E0= -.11642759E+04  d E =-.667765E-03  mag=    -0.7045
