       N       E                     dE             d eps       ncg     rms          rms(c)
DAV:   1     0.509547188969E+04    0.50955E+04   -0.17425E+05  1800   0.929E+02
DAV:   2    -0.876373145321E+01   -0.51042E+04   -0.46906E+04  2556   0.215E+02
DAV:   3    -0.118213109124E+04   -0.11734E+04   -0.11680E+04  2052   0.113E+02
DAV:   4    -0.123088325107E+04   -0.48752E+02   -0.48399E+02  2016   0.307E+01
DAV:   5    -0.123210918551E+04   -0.12259E+01   -0.12235E+01  2340   0.450E+00    0.605E+01
RMM:   6    -0.122059069859E+04    0.11518E+02   -0.66366E+00  1584   0.305E+00    0.495E+01
RMM:   7    -0.118204919720E+04    0.38542E+02   -0.54207E+01  1584   0.859E+00    0.297E+01
RMM:   8    -0.117152859312E+04    0.10521E+02   -0.20436E+01  1584   0.522E+00    0.205E+01
RMM:   9    -0.117073846562E+04    0.79013E+00   -0.25679E+01  1584   0.581E+00    0.928E+00
RMM:  10    -0.117005301212E+04    0.68545E+00   -0.10138E+00  1614   0.135E+00    0.459E+00
RMM:  11    -0.116974940474E+04    0.30361E+00   -0.13411E+00  1584   0.127E+00    0.207E+00
RMM:  12    -0.116971733659E+04    0.32068E-01   -0.14390E-01  1594   0.447E-01    0.686E-01
RMM:  13    -0.116972020876E+04   -0.28722E-02   -0.11050E-01  1584   0.383E-01    0.587E-01
RMM:  14    -0.116971057546E+04    0.96333E-02   -0.25869E-02  1584   0.178E-01    0.210E-01
RMM:  15    -0.116971011133E+04    0.46413E-03   -0.40207E-03  1576   0.611E-02    0.141E-01
RMM:  16    -0.116971025807E+04   -0.14674E-03   -0.71305E-04  1303   0.297E-02    0.746E-02
RMM:  17    -0.116971043429E+04   -0.17622E-03   -0.54061E-04  1348   0.283E-02    0.561E-02
RMM:  18    -0.116971049982E+04   -0.65533E-04   -0.55510E-04  1536   0.270E-02
   1 F= -.11768984E+04 E0= -.11768984E+04  d E =-.117690E+04  mag=     1.0011
       N       E                     dE             d eps       ncg     rms          rms(c)
DAV:   1    -0.116971215323E+04   -0.17189E-02   -0.30940E-01  1728   0.876E-01    0.239E-01
RMM:   2    -0.116971201363E+04    0.13960E-03   -0.73506E-03  1584   0.120E-01    0.187E-01
RMM:   3    -0.116971139565E+04    0.61799E-03   -0.59958E-04  1458   0.312E-02    0.152E-01
RMM:   4    -0.116971052201E+04    0.87364E-03   -0.22804E-03  1584   0.533E-02    0.591E-02
RMM:   5    -0.116971051364E+04    0.83719E-05   -0.35434E-04  1205   0.226E-02
   2 F= -.11768987E+04 E0= -.11768987E+04  d E =-.313116E-03  mag=     1.0002
       N       E                     dE             d eps       ncg     rms          rms(c)
DAV:   1    -0.116971135709E+04   -0.83507E-03   -0.50454E-02  1764   0.353E-01    0.882E-02
RMM:   2    -0.116971130371E+04    0.53372E-04   -0.89186E-04  1566   0.443E-02
   3 F= -.11768994E+04 E0= -.11768994E+04  d E =-.980932E-03  mag=     1.0001
