       N       E                     dE             d eps       ncg     rms          rms(c)
DAV:   1     0.479008404895E+04    0.47901E+04   -0.17180E+05  1824   0.928E+02
DAV:   2    -0.488626160403E+02   -0.48389E+04   -0.43911E+04  2432   0.213E+02
DAV:   3    -0.118014928027E+04   -0.11313E+04   -0.11222E+04  1984   0.112E+02
DAV:   4    -0.123015565125E+04   -0.50006E+02   -0.49719E+02  2048   0.329E+01
DAV:   5    -0.123153269689E+04   -0.13770E+01   -0.13732E+01  2240   0.477E+00    0.698E+01
RMM:   6    -0.121321975974E+04    0.18313E+02   -0.11621E+01  1580   0.430E+00    0.508E+01
RMM:   7    -0.118954886378E+04    0.23671E+02   -0.35326E+01  1570   0.688E+00    0.355E+01
RMM:   8    -0.117207412854E+04    0.17475E+02   -0.21342E+01  1572   0.656E+00    0.264E+01
RMM:   9    -0.116213742953E+04    0.99367E+01   -0.24467E+01  1591   0.657E+00    0.174E+01
RMM:  10    -0.116301018842E+04   -0.87276E+00   -0.12939E+01  1585   0.514E+00    0.892E+00
RMM:  11    -0.116342774169E+04   -0.41755E+00   -0.26213E+00  1864   0.264E+00    0.729E+00
RMM:  12    -0.116265856125E+04    0.76918E+00   -0.23908E+00  1537   0.197E+00    0.249E+00
RMM:  13    -0.116280707987E+04   -0.14852E+00   -0.28167E-01  1603   0.924E-01    0.857E-01
RMM:  14    -0.116284872159E+04   -0.41642E-01   -0.11407E-01  1689   0.459E-01    0.646E-01
RMM:  15    -0.116285542341E+04   -0.67018E-02   -0.32803E-02  1793   0.231E-01    0.401E-01
RMM:  16    -0.116285670817E+04   -0.12848E-02   -0.10522E-02  1569   0.134E-01    0.255E-01
RMM:  17    -0.116285747571E+04   -0.76754E-03   -0.37912E-03  1728   0.872E-02    0.178E-01
RMM:  18    -0.116285830158E+04   -0.82587E-03   -0.96537E-04  1670   0.460E-02    0.145E-01
RMM:  19    -0.116285879771E+04   -0.49613E-03   -0.42258E-04  1638   0.348E-02    0.939E-02
RMM:  20    -0.116285905770E+04   -0.25999E-03   -0.39832E-04  1563   0.280E-02    0.945E-02
RMM:  21    -0.116285907399E+04   -0.16296E-04   -0.14610E-04  1677   0.168E-02    0.600E-02
RMM:  22    -0.116285911477E+04   -0.40774E-04   -0.52544E-05  1602   0.989E-03    0.472E-02
RMM:  23    -0.116285914953E+04   -0.34766E-04   -0.81821E-05  1599   0.119E-02    0.344E-02
RMM:  24    -0.116285917964E+04   -0.30109E-04   -0.24392E-05  1556   0.646E-03    0.287E-02
RMM:  25    -0.116285919773E+04   -0.18089E-04   -0.74005E-05  1691   0.114E-02    0.198E-02
RMM:  26    -0.116285924126E+04   -0.43533E-04   -0.11893E-05  1354   0.484E-03    0.154E-02
RMM:  27    -0.116285923895E+04    0.23169E-05   -0.17424E-05  1607   0.568E-03    0.776E-03
RMM:  28    -0.116285925391E+04   -0.14961E-04   -0.38224E-06  1171   0.317E-03    0.571E-03
RMM:  29    -0.116285925390E+04    0.22992E-08   -0.25004E-06  1079   0.272E-03
   1 F= -.11628593E+04 E0= -.11628593E+04  d E =-.116286E+04  mag=     1.9998
       N       E                     dE             d eps       ncg     rms          rms(c)
DAV:   1    -0.116269501585E+04    0.16424E+00   -0.27721E+01  1728   0.904E+00    0.164E+00
RMM:   2    -0.116279386574E+04   -0.98850E-01   -0.11333E+00  1578   0.163E+00    0.218E+00
RMM:   3    -0.116281753940E+04   -0.23674E-01   -0.24471E-01  1953   0.678E-01    0.190E+00
RMM:   4    -0.116281651604E+04    0.10234E-02   -0.39033E-02  1806   0.228E-01    0.185E+00
RMM:   5    -0.116280771724E+04    0.87988E-02   -0.35984E-02  1546   0.232E-01    0.143E+00
RMM:   6    -0.116280937719E+04   -0.16600E-02   -0.45364E-02  1568   0.251E-01    0.107E+00
RMM:   7    -0.116281013217E+04   -0.75498E-03   -0.62021E-03  1903   0.124E-01    0.917E-01
RMM:   8    -0.116280928103E+04    0.85114E-03   -0.32371E-03  1600   0.709E-02    0.672E-01
RMM:   9    -0.116280900008E+04    0.28095E-03   -0.13005E-03  1843   0.468E-02    0.606E-01
RMM:  10    -0.116280834158E+04    0.65850E-03   -0.97756E-04  1643   0.376E-02    0.468E-01
RMM:  11    -0.116280813131E+04    0.21027E-03   -0.71909E-04  1670   0.314E-02    0.334E-01
RMM:  12    -0.116280816448E+04   -0.33167E-04   -0.19259E-04  1767   0.184E-02    0.256E-01
RMM:  13    -0.116280817088E+04   -0.64018E-05   -0.35252E-04  1619   0.228E-02    0.131E-01
RMM:  14    -0.116280817172E+04   -0.83288E-06   -0.12763E-04  1791   0.137E-02    0.941E-02
RMM:  15    -0.116280818405E+04   -0.12331E-04   -0.49131E-05  1731   0.930E-03    0.494E-02
RMM:  16    -0.116280819555E+04   -0.11504E-04   -0.46821E-05  1652   0.816E-03    0.177E-02
RMM:  17    -0.116280820981E+04   -0.14258E-04   -0.41451E-05  1692   0.748E-03    0.277E-02
RMM:  18    -0.116280821417E+04   -0.43594E-05   -0.59749E-06  1261   0.389E-03    0.339E-02
RMM:  19    -0.116280821586E+04   -0.16953E-05   -0.52719E-06  1288   0.316E-03    0.269E-02
RMM:  20    -0.116280821766E+04   -0.17948E-05   -0.20443E-06  1076   0.231E-03    0.225E-02
RMM:  21    -0.116280821828E+04   -0.62623E-06   -0.33249E-06  1107   0.256E-03
   2 F= -.11628082E+04 E0= -.11628082E+04  d E =0.510356E-01  mag=     2.0000
       N       E                     dE             d eps       ncg     rms          rms(c)
DAV:   1    -0.116285266374E+04   -0.44446E-01   -0.10602E+01  1696   0.557E+00    0.105E+00
RMM:   2    -0.116288655661E+04   -0.33893E-01   -0.40201E-01  1548   0.985E-01    0.132E+00
RMM:   3    -0.116289341104E+04   -0.68544E-02   -0.74687E-02  1860   0.412E-01    0.113E+00
RMM:   4    -0.116289303089E+04    0.38015E-03   -0.13939E-02  1821   0.151E-01    0.111E+00
RMM:   5    -0.116288999294E+04    0.30379E-02   -0.88405E-03  1552   0.120E-01    0.852E-01
RMM:   6    -0.116289017154E+04   -0.17860E-03   -0.18357E-02  1596   0.158E-01    0.628E-01
RMM:   7    -0.116289058345E+04   -0.41191E-03   -0.22257E-03  1856   0.748E-02    0.542E-01
RMM:   8    -0.116289073104E+04   -0.14759E-03   -0.90586E-04  1662   0.388E-02    0.439E-01
RMM:   9    -0.116289072111E+04    0.99237E-05   -0.36377E-04  1815   0.254E-02    0.388E-01
RMM:  10    -0.116289057608E+04    0.14503E-03   -0.35120E-04  1664   0.231E-02    0.285E-01
RMM:  11    -0.116289056016E+04    0.15913E-04   -0.15631E-04  1776   0.152E-02    0.222E-01
RMM:  12    -0.116289056970E+04   -0.95355E-05   -0.70113E-05  1639   0.101E-02    0.167E-01
RMM:  13    -0.116289059511E+04   -0.25407E-04   -0.91430E-05  1612   0.118E-02    0.889E-02
RMM:  14    -0.116289060281E+04   -0.76998E-05   -0.20279E-05  1628   0.630E-03    0.719E-02
RMM:  15    -0.116289060926E+04   -0.64540E-05   -0.19475E-05  1558   0.572E-03    0.279E-02
RMM:  16    -0.116289061270E+04   -0.34347E-05   -0.13850E-05  1515   0.448E-03    0.887E-03
RMM:  17    -0.116289061554E+04   -0.28480E-05   -0.10757E-05  1527   0.429E-03    0.101E-02
RMM:  18    -0.116289061634E+04   -0.79521E-06   -0.15231E-06  1052   0.265E-03
   3 F= -.11628906E+04 E0= -.11628906E+04  d E =-.313624E-01  mag=     2.0000
       N       E                     dE             d eps       ncg     rms          rms(c)
DAV:   1    -0.116286269170E+04    0.27924E-01   -0.74606E+00  1728   0.500E+00    0.920E-01
RMM:   2    -0.116289309632E+04   -0.30405E-01   -0.32939E-01  1537   0.796E-01    0.108E+00
RMM:   3    -0.116289824711E+04   -0.51508E-02   -0.55167E-02  1891   0.325E-01    0.870E-01
RMM:   4    -0.116289847787E+04   -0.23075E-03   -0.75337E-03  1714   0.114E-01    0.822E-01
RMM:   5    -0.116289809416E+04    0.38371E-03   -0.78290E-03  1561   0.111E-01    0.625E-01
RMM:   6    -0.116289823740E+04   -0.14324E-03   -0.39931E-03  1647   0.825E-02    0.488E-01
RMM:   7    -0.116289830111E+04   -0.63717E-04   -0.78277E-04  1747   0.458E-02    0.382E-01
RMM:   8    -0.116289846923E+04   -0.16811E-03   -0.75152E-04  1653   0.344E-02    0.291E-01
RMM:   9    -0.116289847526E+04   -0.60356E-05   -0.24598E-04  1833   0.209E-02    0.242E-01
RMM:  10    -0.116289845771E+04    0.17555E-04   -0.22256E-04  1686   0.193E-02    0.143E-01
RMM:  11    -0.116289846025E+04   -0.25387E-05   -0.75558E-05  1784   0.107E-02    0.958E-02
RMM:  12    -0.116289849311E+04   -0.32866E-04   -0.10762E-04  1699   0.119E-02    0.395E-02
RMM:  13    -0.116289851960E+04   -0.26480E-04   -0.28293E-05  1675   0.682E-03    0.207E-02
RMM:  14    -0.116289852683E+04   -0.72386E-05   -0.13026E-05  1538   0.504E-03    0.177E-02
RMM:  15    -0.116289853386E+04   -0.70235E-05   -0.12218E-05  1494   0.461E-03    0.237E-02
RMM:  16    -0.116289854347E+04   -0.96154E-05   -0.79394E-06  1402   0.360E-03    0.253E-02
RMM:  17    -0.116289854654E+04   -0.30664E-05   -0.38170E-06  1130   0.300E-03    0.223E-02
RMM:  18    -0.116289854819E+04   -0.16526E-05   -0.20133E-06  1077   0.234E-03    0.186E-02
RMM:  19    -0.116289854753E+04    0.66094E-06   -0.43641E-06  1165   0.276E-03
   4 F= -.11628985E+04 E0= -.11628985E+04  d E =-.793119E-02  mag=     2.0000
       N       E                     dE             d eps       ncg     rms          rms(c)
DAV:   1    -0.116289892384E+04   -0.37564E-03   -0.11615E+00  1696   0.196E+00    0.377E-01
RMM:   2    -0.116290342708E+04   -0.45032E-02   -0.49955E-02  1540   0.307E-01    0.413E-01
RMM:   3    -0.116290417735E+04   -0.75027E-03   -0.83614E-03  1897   0.126E-01    0.337E-01
RMM:   4    -0.116290420886E+04   -0.31510E-04   -0.10192E-03  1691   0.439E-02    0.310E-01
RMM:   5    -0.116290415663E+04    0.52231E-04   -0.12979E-03  1557   0.455E-02    0.224E-01
RMM:   6    -0.116290424919E+04   -0.92564E-04   -0.57991E-04  1645   0.320E-02    0.176E-01
RMM:   7    -0.116290429711E+04   -0.47916E-04   -0.11751E-04  1783   0.176E-02    0.140E-01
RMM:   8    -0.116290433839E+04   -0.41282E-04   -0.12511E-04  1649   0.139E-02    0.104E-01
RMM:   9    -0.116290434445E+04   -0.60594E-05   -0.38550E-05  1764   0.827E-03    0.845E-02
RMM:  10    -0.116290434991E+04   -0.54561E-05   -0.35181E-05  1670   0.795E-03    0.468E-02
RMM:  11    -0.116290435387E+04   -0.39617E-05   -0.11401E-05  1421   0.437E-03    0.311E-02
RMM:  12    -0.116290436048E+04   -0.66136E-05   -0.14163E-05  1542   0.472E-03    0.130E-02
RMM:  13    -0.116290436564E+04   -0.51553E-05   -0.35458E-06  1109   0.310E-03    0.761E-03
RMM:  14    -0.116290436674E+04   -0.11025E-05   -0.21835E-06  1065   0.232E-03    0.669E-03
RMM:  15    -0.116290436804E+04   -0.12992E-05   -0.13243E-06  1060   0.202E-03    0.828E-03
RMM:  16    -0.116290436903E+04   -0.98814E-06   -0.10426E-06  1047   0.154E-03
   5 F= -.11629044E+04 E0= -.11629044E+04  d E =-.137527E-01  mag=     2.0000
       N       E                     dE             d eps       ncg     rms          rms(c)
DAV:   1    -0.116289671343E+04    0.76546E-02   -0.34964E+00  1632   0.352E+00    0.598E-01
RMM:   2    -0.116290868044E+04   -0.11967E-01   -0.13159E-01  1539   0.528E-01    0.499E-01
RMM:   3    -0.116291044962E+04   -0.17692E-02   -0.22925E-02  1866   0.222E-01    0.401E-01
RMM:   4    -0.116290949417E+04    0.95545E-03   -0.31372E-03  1640   0.811E-02    0.313E-01
RMM:   5    -0.116290852156E+04    0.97261E-03   -0.42539E-03  1560   0.841E-02    0.183E-01
RMM:   6    -0.116290863377E+04   -0.11220E-03   -0.14285E-03  1767   0.552E-02    0.119E-01
RMM:   7    -0.116290870416E+04   -0.70387E-04   -0.27983E-04  1796   0.262E-02    0.875E-02
RMM:   8    -0.116290875291E+04   -0.48753E-04   -0.13908E-04  1623   0.155E-02    0.544E-02
RMM:   9    -0.116290878729E+04   -0.34380E-04   -0.14902E-04  1709   0.150E-02    0.362E-02
RMM:  10    -0.116290880050E+04   -0.13207E-04   -0.24438E-05  1673   0.757E-03    0.287E-02
RMM:  11    -0.116290882779E+04   -0.27290E-04   -0.34160E-05  1598   0.719E-03    0.205E-02
RMM:  12    -0.116290884533E+04   -0.17547E-04   -0.17946E-05  1599   0.541E-03    0.176E-02
RMM:  13    -0.116290885505E+04   -0.97206E-05   -0.79528E-06  1249   0.416E-03    0.143E-02
RMM:  14    -0.116290884920E+04    0.58575E-05   -0.20552E-05  1452   0.557E-03    0.109E-02
RMM:  15    -0.116290886778E+04   -0.18585E-04   -0.50526E-06  1135   0.313E-03    0.757E-03
RMM:  16    -0.116290886908E+04   -0.13026E-05   -0.71213E-06  1346   0.347E-03    0.522E-03
RMM:  17    -0.116290887891E+04   -0.98223E-05   -0.10651E-06  1034   0.233E-03    0.432E-03
RMM:  18    -0.116290887987E+04   -0.95949E-06   -0.11967E-06  1034   0.151E-03
   6 F= -.11629089E+04 E0= -.11629089E+04  d E =-.451084E-02  mag=     2.0000
       N       E                     dE             d eps       ncg     rms          rms(c)
DAV:   1    -0.116290932530E+04   -0.44639E-03   -0.45288E-01  1760   0.127E+00    0.216E-01
RMM:   2    -0.116291084150E+04   -0.15162E-02   -0.16949E-02  1540   0.188E-01    0.175E-01
RMM:   3    -0.116291104575E+04   -0.20425E-03   -0.29186E-03  1850   0.791E-02    0.138E-01
RMM:   4    -0.116291091889E+04    0.12685E-03   -0.43213E-04  1636   0.305E-02    0.103E-01
RMM:   5    -0.116291083069E+04    0.88201E-04   -0.46971E-04  1560   0.284E-02    0.609E-02
RMM:   6    -0.116291086037E+04   -0.29674E-04   -0.17547E-04  1764   0.199E-02    0.365E-02
RMM:   7    -0.116291087129E+04   -0.10922E-04   -0.33271E-05  1801   0.895E-03    0.284E-02
RMM:   8    -0.116291088345E+04   -0.12162E-04   -0.27677E-05  1611   0.659E-03    0.156E-02
RMM:   9    -0.116291088823E+04   -0.47818E-05   -0.95856E-06  1517   0.426E-03    0.123E-02
RMM:  10    -0.116291089068E+04   -0.24508E-05   -0.22487E-06  1061   0.299E-03    0.101E-02
RMM:  11    -0.116291089792E+04   -0.72403E-05   -0.50566E-06  1312   0.295E-03    0.749E-03
RMM:  12    -0.116291090078E+04   -0.28593E-05   -0.15362E-06  1053   0.206E-03    0.640E-03
RMM:  13    -0.116291089871E+04    0.20699E-05   -0.51197E-06  1163   0.307E-03    0.492E-03
RMM:  14    -0.116291090407E+04   -0.53576E-05   -0.89612E-07  1043   0.203E-03    0.386E-03
RMM:  15    -0.116291090323E+04    0.83798E-06   -0.23711E-06  1089   0.189E-03
   7 F= -.11629109E+04 E0= -.11629109E+04  d E =-.653420E-02  mag=     2.0000
       N       E                     dE             d eps       ncg     rms          rms(c)
DAV:   1    -0.116290603026E+04    0.48738E-02   -0.23238E+00  1632   0.289E+00    0.484E-01
RMM:   2    -0.116291407714E+04   -0.80469E-02   -0.88580E-02  1543   0.411E-01    0.345E-01
RMM:   3    -0.116291531972E+04   -0.12426E-02   -0.14638E-02  1834   0.170E-01    0.272E-01
RMM:   4    -0.116291517595E+04    0.14377E-03   -0.19538E-03  1672   0.633E-02    0.202E-01
RMM:   5    -0.116291515556E+04    0.20388E-04   -0.12084E-03  1572   0.477E-02    0.125E-01
RMM:   6    -0.116291548597E+04   -0.33041E-03   -0.67067E-04  1686   0.389E-02    0.621E-02
RMM:   7    -0.116291554166E+04   -0.55685E-04   -0.13839E-04  1940   0.190E-02    0.509E-02
RMM:   8    -0.116291557583E+04   -0.34178E-04   -0.92077E-05  1586   0.124E-02    0.315E-02
RMM:   9    -0.116291560010E+04   -0.24260E-04   -0.30985E-05  1715   0.722E-03    0.260E-02
RMM:  10    -0.116291561330E+04   -0.13208E-04   -0.70741E-06  1367   0.409E-03    0.214E-02
RMM:  11    -0.116291563617E+04   -0.22869E-04   -0.26916E-05  1583   0.684E-03    0.154E-02
RMM:  12    -0.116291564933E+04   -0.13153E-04   -0.66634E-06  1240   0.338E-03    0.134E-02
RMM:  13    -0.116291564539E+04    0.39313E-05   -0.14626E-05  1451   0.500E-03    0.947E-03
RMM:  14    -0.116291565400E+04   -0.86014E-05   -0.58718E-06  1131   0.326E-03    0.702E-03
RMM:  15    -0.116291565706E+04   -0.30629E-05   -0.67785E-06  1295   0.319E-03    0.426E-03
RMM:  16    -0.116291566711E+04   -0.10054E-04   -0.88727E-07  1035   0.216E-03    0.324E-03
RMM:  17    -0.116291566671E+04    0.39817E-06   -0.12781E-06  1045   0.149E-03
   8 F= -.11629157E+04 E0= -.11629157E+04  d E =-.476348E-02  mag=     2.0000
       N       E                     dE             d eps       ncg     rms          rms(c)
DAV:   1    -0.116291560273E+04    0.64384E-04   -0.76130E-02  1696   0.523E-01    0.869E-02
RMM:   2    -0.116291583605E+04   -0.23332E-03   -0.28971E-03  1542   0.739E-02    0.623E-02
RMM:   3    -0.116291587994E+04   -0.43893E-04   -0.48347E-04  1837   0.307E-02    0.481E-02
RMM:   4    -0.116291588018E+04   -0.23414E-06   -0.60243E-05  1655   0.114E-02    0.359E-02
RMM:   5    -0.116291588993E+04   -0.97537E-05   -0.40803E-05  1564   0.878E-03    0.219E-02
RMM:   6    -0.116291590941E+04   -0.19478E-04   -0.21802E-05  1578   0.720E-03    0.111E-02
RMM:   7    -0.116291591259E+04   -0.31810E-05   -0.40736E-06  1198   0.415E-03    0.900E-03
RMM:   8    -0.116291591667E+04   -0.40790E-05   -0.30463E-06  1160   0.281E-03    0.550E-03
RMM:   9    -0.116291591745E+04   -0.77868E-06   -0.83036E-07  1033   0.177E-03
   9 F= -.11629159E+04 E0= -.11629159E+04  d E =-.501422E-02  mag=     2.0000
       N       E                     dE             d eps       ncg     rms          rms(c)
DAV:   1    -0.116291033568E+04    0.55810E-02   -0.18614E+00  1632   0.258E+00    0.430E-01
RMM:   2    -0.116291676166E+04   -0.64260E-02   -0.71096E-02  1543   0.365E-01    0.303E-01
RMM:   3    -0.116291786447E+04   -0.11028E-02   -0.11558E-02  1824   0.149E-01    0.234E-01
RMM:   4    -0.116291791343E+04   -0.48967E-04   -0.15627E-03  1700   0.560E-02    0.175E-01
RMM:   5    -0.116291809279E+04   -0.17936E-03   -0.80704E-04  1601   0.391E-02    0.109E-01
RMM:   6    -0.116291843101E+04   -0.33822E-03   -0.43115E-04  1746   0.313E-02    0.535E-02
RMM:   7    -0.116291847520E+04   -0.44192E-04   -0.77245E-05  1884   0.140E-02    0.425E-02
RMM:   8    -0.116291851586E+04   -0.40653E-04   -0.83599E-05  1593   0.113E-02    0.248E-02
RMM:   9    -0.116291852815E+04   -0.12296E-04   -0.21736E-05  1717   0.624E-03    0.215E-02
RMM:  10    -0.116291853758E+04   -0.94324E-05   -0.44062E-06  1175   0.332E-03    0.179E-02
RMM:  11    -0.116291855509E+04   -0.17502E-04   -0.16160E-05  1535   0.546E-03    0.126E-02
RMM:  12    -0.116291856544E+04   -0.10352E-04   -0.67764E-06  1296   0.328E-03    0.104E-02
RMM:  13    -0.116291856620E+04   -0.75636E-06   -0.82339E-06  1251   0.385E-03
  10 F= -.11629186E+04 E0= -.11629186E+04  d E =-.264875E-02  mag=     2.0000
       N       E                     dE             d eps       ncg     rms          rms(c)
DAV:   1    -0.116291836886E+04    0.19658E-03   -0.12123E-01  1696   0.657E-01    0.109E-01
RMM:   2    -0.116291875677E+04   -0.38792E-03   -0.46349E-03  1543   0.926E-02    0.777E-02
RMM:   3    -0.116291883317E+04   -0.76394E-04   -0.75584E-04  1821   0.381E-02    0.593E-02
RMM:   4    -0.116291884514E+04   -0.11971E-04   -0.97224E-05  1701   0.143E-02    0.445E-02
RMM:   5    -0.116291886747E+04   -0.22329E-04   -0.56525E-05  1582   0.102E-02    0.271E-02
RMM:   6    -0.116291890070E+04   -0.33233E-04   -0.27210E-05  1629   0.823E-03    0.127E-02
RMM:   7    -0.116291890566E+04   -0.49573E-05   -0.43414E-06  1194   0.426E-03    0.977E-03
RMM:   8    -0.116291891093E+04   -0.52685E-05   -0.54880E-06  1379   0.330E-03    0.507E-03
RMM:   9    -0.116291891120E+04   -0.27505E-06   -0.11841E-06  1035   0.195E-03
  11 F= -.11629189E+04 E0= -.11629189E+04  d E =-.299376E-02  mag=     2.0000
       N       E                     dE             d eps       ncg     rms          rms(c)
DAV:   1    -0.116291713007E+04    0.17809E-02   -0.96873E-01  1632   0.185E+00    0.292E-01
RMM:   2    -0.116292009804E+04   -0.29680E-02   -0.33138E-02  1542   0.261E-01    0.218E-01
RMM:   3    -0.116292057526E+04   -0.47722E-03   -0.56435E-03  1813   0.109E-01    0.173E-01
RMM:   4    -0.116292048586E+04    0.89401E-04   -0.82264E-04  1658   0.428E-02    0.126E-01
RMM:   5    -0.116292046305E+04    0.22810E-04   -0.60666E-04  1578   0.339E-02    0.732E-02
RMM:   6    -0.116292056875E+04   -0.10570E-03   -0.26056E-04  1807   0.247E-02    0.383E-02
RMM:   7    -0.116292058793E+04   -0.19182E-04   -0.38783E-05  1794   0.974E-03    0.308E-02
RMM:   8    -0.116292060994E+04   -0.22012E-04   -0.50055E-05  1596   0.867E-03    0.168E-02
RMM:   9    -0.116292061388E+04   -0.39355E-05   -0.10778E-05  1565   0.463E-03    0.145E-02
RMM:  10    -0.116292061917E+04   -0.52943E-05   -0.24547E-06  1053   0.290E-03    0.119E-02
RMM:  11    -0.116292062777E+04   -0.85932E-05   -0.79064E-06  1411   0.380E-03    0.889E-03
RMM:  12    -0.116292063265E+04   -0.48812E-05   -0.20484E-06  1070   0.213E-03    0.784E-03
RMM:  13    -0.116292063388E+04   -0.12365E-05   -0.26250E-06  1069   0.250E-03    0.641E-03
RMM:  14    -0.116292063118E+04    0.27003E-05   -0.38218E-06  1091   0.254E-03    0.467E-03
RMM:  15    -0.116292063659E+04   -0.54070E-05   -0.21474E-06  1064   0.196E-03    0.305E-03
RMM:  16    -0.116292063818E+04   -0.15867E-05   -0.68389E-07  1041   0.160E-03    0.217E-03
RMM:  17    -0.116292063958E+04   -0.14011E-05   -0.48181E-07  1023   0.101E-03    0.155E-03
RMM:  18    -0.116292064004E+04   -0.46326E-06   -0.13653E-07   990   0.843E-04
  12 F= -.11629206E+04 E0= -.11629206E+04  d E =-.172884E-02  mag=     2.0000
       N       E                     dE             d eps       ncg     rms          rms(c)
DAV:   1    -0.116292061586E+04    0.23714E-04   -0.45694E-02  1760   0.402E-01    0.633E-02
RMM:   2    -0.116292074083E+04   -0.12497E-03   -0.15656E-03  1542   0.567E-02    0.473E-02
RMM:   3    -0.116292076269E+04   -0.21854E-04   -0.26508E-04  1813   0.235E-02    0.373E-02
RMM:   4    -0.116292076139E+04    0.12985E-05   -0.38115E-05  1630   0.928E-03    0.274E-02
RMM:   5    -0.116292076554E+04   -0.41572E-05   -0.29109E-05  1560   0.741E-03    0.159E-02
RMM:   6    -0.116292077451E+04   -0.89702E-05   -0.12321E-05  1553   0.555E-03    0.831E-03
RMM:   7    -0.116292077561E+04   -0.10966E-05   -0.18904E-06  1044   0.345E-03    0.675E-03
RMM:   8    -0.116292077756E+04   -0.19485E-05   -0.18615E-06  1049   0.213E-03    0.409E-03
RMM:   9    -0.116292077803E+04   -0.46928E-06   -0.83090E-07  1030   0.153E-03
  13 F= -.11629208E+04 E0= -.11629208E+04  d E =-.186683E-02  mag=     2.0000
       N       E                     dE             d eps       ncg     rms          rms(c)
DAV:   1    -0.116292024585E+04    0.53171E-03   -0.46944E-01  1600   0.128E+00    0.192E-01
RMM:   2    -0.116292152259E+04   -0.12767E-02   -0.14751E-02  1543   0.179E-01    0.147E-01
RMM:   3    -0.116292170867E+04   -0.18608E-03   -0.24924E-03  1793   0.743E-02    0.119E-01
RMM:   4    -0.116292165111E+04    0.57567E-04   -0.37965E-04  1655   0.299E-02    0.866E-02
RMM:   5    -0.116292163059E+04    0.20512E-04   -0.32147E-04  1565   0.246E-02    0.500E-02
RMM:   6    -0.116292168078E+04   -0.50188E-04   -0.13488E-04  1796   0.175E-02    0.272E-02
RMM:   7    -0.116292168971E+04   -0.89325E-05   -0.20819E-05  1736   0.727E-03    0.208E-02
RMM:   8    -0.116292169994E+04   -0.10227E-04   -0.19545E-05  1565   0.555E-03    0.113E-02
RMM:   9    -0.116292170153E+04   -0.15859E-05   -0.70084E-06  1440   0.358E-03    0.926E-03
RMM:  10    -0.116292170371E+04   -0.21801E-05   -0.16490E-06  1045   0.266E-03    0.752E-03
RMM:  11    -0.116292170804E+04   -0.43284E-05   -0.29301E-06  1115   0.230E-03    0.591E-03
RMM:  12    -0.116292170950E+04   -0.14596E-05   -0.71344E-07  1038   0.165E-03    0.523E-03
RMM:  13    -0.116292170972E+04   -0.22294E-06   -0.20066E-06  1055   0.189E-03
  14 F= -.11629217E+04 E0= -.11629217E+04  d E =-.931690E-03  mag=     2.0000
       N       E                     dE             d eps       ncg     rms          rms(c)
DAV:   1    -0.116292171455E+04   -0.50547E-05   -0.19404E-02  1696   0.260E-01    0.394E-02
RMM:   2    -0.116292176138E+04   -0.46834E-04   -0.60851E-04  1542   0.365E-02    0.301E-02
RMM:   3    -0.116292176965E+04   -0.82675E-05   -0.10429E-04  1792   0.153E-02    0.244E-02
RMM:   4    -0.116292176959E+04    0.61540E-07   -0.16361E-05  1600   0.625E-03    0.177E-02
RMM:   5    -0.116292177062E+04   -0.10344E-05   -0.14092E-05  1549   0.518E-03    0.102E-02
RMM:   6    -0.116292177417E+04   -0.35493E-05   -0.52461E-06  1429   0.371E-03    0.545E-03
RMM:   7    -0.116292177461E+04   -0.43228E-06   -0.85748E-07  1029   0.243E-03
  15 F= -.11629218E+04 E0= -.11629218E+04  d E =-.996578E-03  mag=     2.0000
       N       E                     dE             d eps       ncg     rms          rms(c)
DAV:   1    -0.116292151817E+04    0.25601E-03   -0.25077E-01  1600   0.926E-01    0.152E-01
RMM:   2    -0.116292221903E+04   -0.70086E-03   -0.89866E-03  1559   0.132E-01    0.112E-01
RMM:   3    -0.116292232592E+04   -0.10689E-03   -0.13992E-03  1806   0.534E-02    0.902E-02
RMM:   4    -0.116292231038E+04    0.15536E-04   -0.20459E-04  1648   0.219E-02    0.649E-02
RMM:   5    -0.116292234098E+04   -0.30593E-04   -0.17417E-04  1590   0.180E-02    0.386E-02
RMM:   6    -0.116292242220E+04   -0.81223E-04   -0.70484E-05  1807   0.127E-02    0.218E-02
RMM:   7    -0.116292244266E+04   -0.20464E-04   -0.12718E-05  1518   0.570E-03    0.150E-02
RMM:   8    -0.116292245415E+04   -0.11489E-04   -0.84300E-06  1472   0.408E-03    0.845E-03
RMM:   9    -0.116292245619E+04   -0.20408E-05   -0.63787E-06  1424   0.338E-03    0.654E-03
RMM:  10    -0.116292245762E+04   -0.14297E-05   -0.10460E-06  1037   0.234E-03    0.553E-03
RMM:  11    -0.116292245951E+04   -0.18824E-05   -0.11433E-06  1043   0.155E-03    0.432E-03
RMM:  12    -0.116292246047E+04   -0.96432E-06   -0.60371E-07  1035   0.123E-03
  16 F= -.11629225E+04 E0= -.11629225E+04  d E =-.685865E-03  mag=     2.0000
