       N       E                     dE             d eps       ncg     rms          rms(c)
DAV:   1     0.514328460039E+04    0.51433E+04   -0.17637E+05  1792   0.954E+02
DAV:   2     0.255716875994E+02   -0.51177E+04   -0.46879E+04  2432   0.219E+02
DAV:   3    -0.118971863245E+04   -0.12153E+04   -0.12087E+04  1984   0.118E+02
DAV:   4    -0.124280116724E+04   -0.53083E+02   -0.52752E+02  2048   0.330E+01
DAV:   5    -0.124405209233E+04   -0.12509E+01   -0.12469E+01  2272   0.472E+00    0.866E+01
RMM:   6    -0.123224460556E+04    0.11807E+02   -0.11572E+02  1661   0.169E+01    0.102E+02
RMM:   7    -0.121695550205E+04    0.15289E+02   -0.17059E+01  1544   0.692E+00    0.693E+01
RMM:   8    -0.119937073343E+04    0.17585E+02   -0.14801E+01  1558   0.555E+00    0.448E+01
RMM:   9    -0.118931306592E+04    0.10058E+02   -0.93753E+00  1564   0.403E+00    0.349E+01
RMM:  10    -0.117642282877E+04    0.12890E+02   -0.12756E+01  1628   0.494E+00    0.271E+01
RMM:  11    -0.116775643753E+04    0.86664E+01   -0.14641E+01  1618   0.516E+00    0.186E+01
RMM:  12    -0.116746327578E+04    0.29316E+00   -0.94494E+00  1567   0.426E+00    0.166E+01
RMM:  13    -0.116698524190E+04    0.47803E+00   -0.27434E+00  1608   0.253E+00    0.960E+00
RMM:  14    -0.116725810573E+04   -0.27286E+00   -0.94866E-01  1658   0.139E+00    0.826E+00
RMM:  15    -0.116732378479E+04   -0.65679E-01   -0.69467E-01  1578   0.947E-01    0.625E+00
RMM:  16    -0.116718502398E+04    0.13876E+00   -0.23316E-01  1558   0.775E-01    0.433E+00
RMM:  17    -0.116698794493E+04    0.19708E+00   -0.26861E-01  1551   0.660E-01    0.253E+00
RMM:  18    -0.116693102748E+04    0.56917E-01   -0.10324E-01  1576   0.426E-01    0.160E+00
RMM:  19    -0.116693724550E+04   -0.62180E-02   -0.17632E-02  1625   0.226E-01    0.145E+00
RMM:  20    -0.116693840393E+04   -0.11584E-02   -0.88804E-03  1600   0.134E-01    0.137E+00
RMM:  21    -0.116693857382E+04   -0.16989E-03   -0.36775E-03  1576   0.771E-02    0.139E+00
RMM:  22    -0.116692444415E+04    0.14130E-01   -0.66840E-03  1604   0.103E-01    0.132E+00
RMM:  23    -0.116689320110E+04    0.31243E-01   -0.37215E-02  1768   0.183E-01    0.137E+00
RMM:  24    -0.116689881655E+04   -0.56154E-02   -0.78227E-03  1666   0.863E-02    0.140E+00
RMM:  25    -0.116690865916E+04   -0.98426E-02   -0.10318E-03  1665   0.507E-02    0.139E+00
RMM:  26    -0.116691821321E+04   -0.95540E-02   -0.98754E-03  1719   0.947E-02    0.127E+00
RMM:  27    -0.116689148033E+04    0.26733E-01   -0.16668E-01  2313   0.328E-01    0.111E+00
RMM:  28    -0.116692850486E+04   -0.37025E-01   -0.84689E-03  1787   0.110E-01    0.843E-01
RMM:  29    -0.116690407943E+04    0.24425E-01   -0.10189E-01  2170   0.245E-01    0.142E+00
RMM:  30    -0.116692543979E+04   -0.21360E-01   -0.73647E-03  1773   0.835E-02    0.136E+00
RMM:  31    -0.116692705481E+04   -0.16150E-02   -0.63121E-04  1644   0.386E-02    0.136E+00
RMM:  32    -0.116692893740E+04   -0.18826E-02   -0.14210E-03  1666   0.306E-02    0.139E+00
RMM:  33    -0.116694261533E+04   -0.13678E-01   -0.72372E-03  1982   0.743E-02    0.944E-01
RMM:  34    -0.116693977557E+04    0.28398E-02   -0.10599E-02  2041   0.864E-02    0.128E+00
RMM:  35    -0.116695078322E+04   -0.11008E-01   -0.14754E-02  2115   0.105E-01    0.657E-01
RMM:  36    -0.116695418868E+04   -0.34055E-02   -0.95185E-03  2003   0.801E-02    0.684E-01
RMM:  37    -0.116695655716E+04   -0.23685E-02   -0.43050E-03  1872   0.492E-02    0.692E-01
RMM:  38    -0.116695920195E+04   -0.26448E-02   -0.88887E-03  2012   0.693E-02    0.685E-01
RMM:  39    -0.116696055146E+04   -0.13495E-02   -0.25017E-03  1835   0.421E-02    0.692E-01
RMM:  40    -0.116696031724E+04    0.23422E-03   -0.44946E-04  1709   0.227E-02    0.687E-01
RMM:  41    -0.116696238933E+04   -0.20721E-02   -0.19089E-02  2285   0.109E-01    0.719E-01
RMM:  42    -0.116696335950E+04   -0.97017E-03   -0.13953E-02  2214   0.794E-02    0.648E-01
RMM:  43    -0.116696460230E+04   -0.12428E-02   -0.11254E-03  1877   0.378E-02    0.606E-01
RMM:  44    -0.116696290354E+04    0.16988E-02   -0.32288E-03  1961   0.502E-02    0.855E-01
RMM:  45    -0.116696004463E+04    0.28589E-02   -0.18564E-02  2327   0.110E-01    0.914E-01
RMM:  46    -0.116696374791E+04   -0.37033E-02   -0.54524E-03  2277   0.647E-02    0.570E-01
RMM:  47    -0.116696391744E+04   -0.16953E-03   -0.13574E-03  1956   0.287E-02    0.481E-01
RMM:  48    -0.116696396058E+04   -0.43141E-04   -0.13769E-04  1688   0.153E-02    0.428E-01
RMM:  49    -0.116696434316E+04   -0.38259E-03   -0.25846E-03  2053   0.466E-02    0.229E-01
RMM:  50    -0.116696486952E+04   -0.52636E-03   -0.15906E-04  1745   0.167E-02    0.162E-01
RMM:  51    -0.116696473913E+04    0.13039E-03   -0.89523E-04  1977   0.328E-02    0.166E-01
RMM:  52    -0.116696495146E+04   -0.21234E-03   -0.66058E-04  1771   0.265E-02    0.774E-02
RMM:  53    -0.116696497300E+04   -0.21536E-04   -0.57722E-05  1470   0.108E-02    0.118E-01
RMM:  54    -0.116696497633E+04   -0.33261E-05   -0.92200E-04  1963   0.275E-02    0.213E-02
RMM:  55    -0.116696517822E+04   -0.20189E-03   -0.62748E-05  1495   0.973E-03    0.265E-02
RMM:  56    -0.116696518387E+04   -0.56593E-05   -0.58374E-05  1348   0.628E-03    0.182E-02
RMM:  57    -0.116696521612E+04   -0.32243E-04   -0.78182E-06  1173   0.398E-03    0.753E-03
RMM:  58    -0.116696522029E+04   -0.41760E-05   -0.91050E-07  1024   0.184E-03    0.857E-03
RMM:  59    -0.116696522065E+04   -0.35556E-06   -0.10657E-06  1002   0.124E-03
   1 F= -.11740201E+04 E0= -.11740201E+04  d E =-.117402E+04  mag=    -1.0000
       N       E                     dE             d eps       ncg     rms          rms(c)
DAV:   1    -0.116696019066E+04    0.50296E-02   -0.35733E-01  1600   0.177E+00    0.215E-01
RMM:   2    -0.116696404984E+04   -0.38592E-02   -0.40097E-02  1609   0.291E-01    0.156E-01
RMM:   3    -0.116696446537E+04   -0.41552E-03   -0.54009E-03  1791   0.104E-01    0.123E-01
RMM:   4    -0.116696446567E+04   -0.30210E-06   -0.85861E-04  1881   0.383E-02    0.114E-01
RMM:   5    -0.116696437510E+04    0.90570E-04   -0.35395E-04  1570   0.248E-02    0.643E-02
RMM:   6    -0.116696439174E+04   -0.16640E-04   -0.26387E-04  1575   0.213E-02    0.452E-02
RMM:   7    -0.116696438641E+04    0.53230E-05   -0.30995E-05  1552   0.109E-02    0.326E-02
RMM:   8    -0.116696438986E+04   -0.34430E-05   -0.18251E-05  1532   0.595E-03    0.321E-02
RMM:   9    -0.116696438591E+04    0.39454E-05   -0.38339E-06  1135   0.322E-03    0.322E-02
RMM:  10    -0.116696438217E+04    0.37470E-05   -0.17431E-06  1031   0.244E-03    0.303E-02
RMM:  11    -0.116696435656E+04    0.25609E-04   -0.47767E-05  1577   0.816E-03    0.282E-02
RMM:  12    -0.116696438181E+04   -0.25250E-04   -0.12037E-05  1541   0.486E-03    0.262E-02
RMM:  13    -0.116696437479E+04    0.70184E-05   -0.11700E-05  1463   0.412E-03    0.201E-02
RMM:  14    -0.116696438098E+04   -0.61961E-05   -0.28968E-06  1130   0.255E-03    0.191E-02
RMM:  15    -0.116696436756E+04    0.13423E-04   -0.11871E-05  1138   0.351E-03    0.206E-02
RMM:  16    -0.116696434166E+04    0.25900E-04   -0.29898E-05  1267   0.474E-03    0.217E-02
RMM:  17    -0.116696436639E+04   -0.24733E-04   -0.19161E-06  1053   0.271E-03    0.214E-02
RMM:  18    -0.116696436415E+04    0.22405E-05   -0.14249E-06  1012   0.135E-03    0.212E-02
RMM:  19    -0.116696433913E+04    0.25026E-04   -0.19791E-05  1467   0.456E-03    0.231E-02
RMM:  20    -0.116696432278E+04    0.16344E-04   -0.16473E-05  1142   0.348E-03    0.249E-02
RMM:  21    -0.116696434012E+04   -0.17336E-04   -0.10053E-04  1391   0.101E-02    0.199E-02
RMM:  22    -0.116696416255E+04    0.17757E-03   -0.57687E-04  2040   0.202E-02    0.205E-02
RMM:  23    -0.116696435128E+04   -0.18874E-03   -0.41988E-05  1370   0.842E-03    0.147E-02
RMM:  24    -0.116696438350E+04   -0.32217E-04   -0.47416E-06  1106   0.342E-03    0.136E-02
RMM:  25    -0.116696438868E+04   -0.51796E-05   -0.11972E-06  1018   0.171E-03    0.135E-02
RMM:  26    -0.116696438799E+04    0.68500E-06   -0.17093E-06   992   0.135E-03
   2 F= -.11740197E+04 E0= -.11740197E+04  d E =0.403749E-03  mag=    -1.0000
       N       E                     dE             d eps       ncg     rms          rms(c)
DAV:   1    -0.116696422373E+04    0.16495E-03   -0.11861E-01  1600   0.101E+00    0.125E-01
RMM:   2    -0.116696545490E+04   -0.12312E-02   -0.12677E-02  1575   0.164E-01    0.890E-02
RMM:   3    -0.116696556378E+04   -0.10887E-03   -0.15182E-03  1705   0.563E-02    0.705E-02
RMM:   4    -0.116696556141E+04    0.23635E-05   -0.26103E-04  1804   0.211E-02    0.646E-02
RMM:   5    -0.116696554120E+04    0.20211E-04   -0.98877E-05  1578   0.136E-02    0.458E-02
RMM:   6    -0.116696554352E+04   -0.23159E-05   -0.43956E-05  1665   0.924E-03    0.462E-02
RMM:   7    -0.116696553326E+04    0.10255E-04   -0.10478E-05  1511   0.480E-03    0.457E-02
RMM:   8    -0.116696553074E+04    0.25215E-05   -0.10799E-06  1029   0.197E-03    0.456E-02
RMM:   9    -0.116696552701E+04    0.37286E-05   -0.91078E-07  1024   0.135E-03    0.448E-02
RMM:  10    -0.116696535098E+04    0.17603E-03   -0.29880E-04  2215   0.171E-02    0.398E-02
RMM:  11    -0.116696544013E+04   -0.89150E-04   -0.37151E-05  1358   0.694E-03    0.395E-02
RMM:  12    -0.116696550151E+04   -0.61381E-04   -0.57230E-06  1146   0.458E-03    0.387E-02
RMM:  13    -0.116696541486E+04    0.86649E-04   -0.39814E-04  1763   0.179E-02    0.310E-02
RMM:  14    -0.116696532166E+04    0.93203E-04   -0.49957E-04  1943   0.165E-02    0.219E-02
RMM:  15    -0.116696553265E+04   -0.21099E-03   -0.37489E-05  1694   0.991E-03    0.979E-03
RMM:  16    -0.116696554808E+04   -0.15433E-04   -0.51169E-06  1129   0.384E-03    0.656E-03
RMM:  17    -0.116696554298E+04    0.51009E-05   -0.10174E-05  1127   0.347E-03    0.388E-03
RMM:  18    -0.116696554733E+04   -0.43518E-05   -0.22143E-06  1033   0.194E-03    0.226E-03
RMM:  19    -0.116696554838E+04   -0.10525E-05   -0.13694E-06   991   0.139E-03    0.138E-03
RMM:  20    -0.116696554941E+04   -0.10296E-05   -0.27005E-07   954   0.911E-04    0.769E-04
RMM:  21    -0.116696554955E+04   -0.14050E-06   -0.12195E-07   805   0.573E-04
   3 F= -.11740206E+04 E0= -.11740206E+04  d E =-.511452E-03  mag=    -1.0000
       N       E                     dE             d eps       ncg     rms          rms(c)
DAV:   1    -0.116696230249E+04    0.32469E-02   -0.29831E-01  1664   0.157E+00    0.193E-01
RMM:   2    -0.116696532234E+04   -0.30199E-02   -0.31309E-02  1570   0.246E-01    0.134E-01
RMM:   3    -0.116696558854E+04   -0.26620E-03   -0.34252E-03  1711   0.827E-02    0.104E-01
RMM:   4    -0.116696562243E+04   -0.33897E-04   -0.62938E-04  1777   0.312E-02    0.939E-02
RMM:   5    -0.116696560185E+04    0.20583E-04   -0.16544E-04  1550   0.187E-02    0.560E-02
RMM:   6    -0.116696561346E+04   -0.11610E-04   -0.10774E-04  1587   0.146E-02    0.460E-02
RMM:   7    -0.116696562001E+04   -0.65503E-05   -0.21468E-05  1672   0.765E-03    0.447E-02
RMM:   8    -0.116696561223E+04    0.77840E-05   -0.40997E-06  1159   0.306E-03    0.450E-02
RMM:   9    -0.116696561382E+04   -0.15973E-05   -0.19224E-06  1032   0.209E-03    0.450E-02
RMM:  10    -0.116696563010E+04   -0.16272E-04   -0.24054E-05  1677   0.575E-03    0.465E-02
RMM:  11    -0.116696562802E+04    0.20716E-05   -0.55348E-05  1822   0.810E-03    0.464E-02
RMM:  12    -0.116696563121E+04   -0.31901E-05   -0.16316E-05  1179   0.415E-03    0.404E-02
RMM:  13    -0.116696562731E+04    0.39060E-05   -0.26738E-05  1804   0.578E-03    0.245E-02
RMM:  14    -0.116696562794E+04   -0.63499E-06   -0.41135E-06  1226   0.298E-03
   4 F= -.11740209E+04 E0= -.11740209E+04  d E =-.320281E-03  mag=    -1.0000
       N       E                     dE             d eps       ncg     rms          rms(c)
DAV:   1    -0.116696544976E+04    0.17755E-03   -0.33525E-02  1632   0.528E-01    0.661E-02
RMM:   2    -0.116696578433E+04   -0.33458E-03   -0.35203E-03  1570   0.821E-02    0.456E-02
RMM:   3    -0.116696581413E+04   -0.29797E-04   -0.40220E-04  1708   0.278E-02    0.361E-02
RMM:   4    -0.116696581582E+04   -0.16843E-05   -0.55279E-05  1736   0.102E-02    0.331E-02
RMM:   5    -0.116696581528E+04    0.53256E-06   -0.19077E-05  1544   0.630E-03    0.233E-02
RMM:   6    -0.116696581683E+04   -0.15439E-05   -0.97470E-06  1557   0.447E-03    0.230E-02
RMM:   7    -0.116696581468E+04    0.21426E-05   -0.17401E-06  1048   0.239E-03    0.230E-02
RMM:   8    -0.116696581380E+04    0.88017E-06   -0.65478E-07  1011   0.156E-03
   5 F= -.11740210E+04 E0= -.11740210E+04  d E =-.424754E-03  mag=    -1.0000
