       N       E                     dE             d eps       ncg     rms          rms(c)
DAV:   1     0.471718378008E+04    0.47172E+04   -0.17305E+05  1856   0.930E+02
DAV:   2    -0.680170110870E+02   -0.47852E+04   -0.43325E+04  2464   0.207E+02
DAV:   3    -0.118183198741E+04   -0.11138E+04   -0.11088E+04  1984   0.109E+02
DAV:   4    -0.122793505019E+04   -0.46103E+02   -0.45825E+02  1952   0.296E+01
DAV:   5    -0.122913697852E+04   -0.12019E+01   -0.11984E+01  2208   0.444E+00    0.675E+01
RMM:   6    -0.121195591646E+04    0.17181E+02   -0.10216E+01  1597   0.372E+00    0.518E+01
RMM:   7    -0.118358890922E+04    0.28367E+02   -0.43082E+01  1556   0.764E+00    0.327E+01
RMM:   8    -0.116784942912E+04    0.15739E+02   -0.22779E+01  1541   0.629E+00    0.238E+01
RMM:   9    -0.116155220117E+04    0.62972E+01   -0.23656E+01  1553   0.631E+00    0.139E+01
RMM:  10    -0.116326998812E+04   -0.17178E+01   -0.94625E+00  1555   0.419E+00    0.775E+00
RMM:  11    -0.116276838232E+04    0.50161E+00   -0.92545E-01  1579   0.152E+00    0.623E+00
RMM:  12    -0.116216708899E+04    0.60129E+00   -0.20954E+00  1539   0.176E+00    0.117E+00
RMM:  13    -0.116219859166E+04   -0.31503E-01   -0.21952E-01  1585   0.735E-01    0.571E-01
RMM:  14    -0.116220256437E+04   -0.39727E-02   -0.59125E-02  1581   0.346E-01    0.381E-01
RMM:  15    -0.116220339363E+04   -0.82926E-03   -0.13134E-02  1697   0.169E-01    0.239E-01
RMM:  16    -0.116220393525E+04   -0.54162E-03   -0.59292E-03  1698   0.100E-01    0.163E-01
RMM:  17    -0.116220434251E+04   -0.40726E-03   -0.11012E-03  1723   0.454E-02    0.144E-01
RMM:  18    -0.116220486569E+04   -0.52318E-03   -0.91482E-04  1550   0.393E-02    0.990E-02
RMM:  19    -0.116220516051E+04   -0.29482E-03   -0.35817E-04  1571   0.238E-02    0.661E-02
RMM:  20    -0.116220523239E+04   -0.71873E-04   -0.22907E-04  1580   0.190E-02    0.415E-02
RMM:  21    -0.116220527767E+04   -0.45285E-04   -0.86744E-05  1586   0.117E-02    0.245E-02
RMM:  22    -0.116220528310E+04   -0.54255E-05   -0.47098E-05  1602   0.821E-03    0.167E-02
RMM:  23    -0.116220528138E+04    0.17148E-05   -0.20040E-05  1560   0.571E-03    0.121E-02
RMM:  24    -0.116220528660E+04   -0.52195E-05   -0.79012E-06  1486   0.354E-03    0.700E-03
RMM:  25    -0.116220528956E+04   -0.29535E-05   -0.38622E-06  1173   0.245E-03    0.663E-03
RMM:  26    -0.116220528884E+04    0.71864E-06   -0.27416E-06  1112   0.199E-03
   1 F= -.11622053E+04 E0= -.11622053E+04  d E =-.116221E+04  mag=     1.0000
       N       E                     dE             d eps       ncg     rms          rms(c)
DAV:   1    -0.116214547030E+04    0.59819E-01   -0.12829E+01  1664   0.537E+00    0.184E+00
RMM:   2    -0.116218504479E+04   -0.39574E-01   -0.41753E-01  1723   0.917E-01    0.173E+00
RMM:   3    -0.116219171203E+04   -0.66672E-02   -0.10099E-01  1755   0.393E-01    0.145E+00
RMM:   4    -0.116218994225E+04    0.17698E-02   -0.45287E-02  1625   0.261E-01    0.587E-01
RMM:   5    -0.116219132641E+04   -0.13842E-02   -0.10126E-02  1813   0.128E-01    0.258E-01
RMM:   6    -0.116219138233E+04   -0.55923E-04   -0.19329E-03  1714   0.566E-02    0.164E-01
RMM:   7    -0.116219130656E+04    0.75776E-04   -0.11073E-03  1595   0.412E-02    0.842E-02
RMM:   8    -0.116219129792E+04    0.86330E-05   -0.56650E-04  1793   0.287E-02    0.528E-02
RMM:   9    -0.116219129381E+04    0.41122E-05   -0.16009E-04  1871   0.151E-02    0.369E-02
RMM:  10    -0.116219129029E+04    0.35255E-05   -0.62334E-05  1581   0.996E-03    0.170E-02
RMM:  11    -0.116219129350E+04   -0.32167E-05   -0.28669E-05  1627   0.664E-03    0.111E-02
RMM:  12    -0.116219129434E+04   -0.83759E-06   -0.49247E-06  1405   0.317E-03
   2 F= -.11621913E+04 E0= -.11621913E+04  d E =0.139945E-01  mag=     1.0000
       N       E                     dE             d eps       ncg     rms          rms(c)
DAV:   1    -0.116221068754E+04   -0.19394E-01   -0.41776E+00  1664   0.307E+00    0.106E+00
RMM:   2    -0.116222271316E+04   -0.12026E-01   -0.12769E-01  1728   0.528E-01    0.964E-01
RMM:   3    -0.116222425698E+04   -0.15438E-02   -0.28209E-02  1658   0.222E-01    0.783E-01
RMM:   4    -0.116222384542E+04    0.41157E-03   -0.16542E-02  1622   0.158E-01    0.316E-01
RMM:   5    -0.116222427289E+04   -0.42748E-03   -0.29462E-03  1881   0.711E-02    0.148E-01
RMM:   6    -0.116222426755E+04    0.53405E-05   -0.53237E-04  1827   0.280E-02    0.119E-01
RMM:   7    -0.116222422183E+04    0.45724E-04   -0.34633E-04  1591   0.223E-02    0.622E-02
RMM:   8    -0.116222422350E+04   -0.16710E-05   -0.14895E-04  1729   0.151E-02    0.393E-02
RMM:   9    -0.116222422466E+04   -0.11583E-05   -0.64738E-05  1699   0.954E-03    0.227E-02
RMM:  10    -0.116222422405E+04    0.60981E-06   -0.20009E-05  1658   0.553E-03    0.115E-02
RMM:  11    -0.116222422455E+04   -0.50736E-06   -0.12543E-05  1554   0.431E-03    0.618E-03
RMM:  12    -0.116222422494E+04   -0.38306E-06   -0.22658E-06  1085   0.216E-03
   3 F= -.11622242E+04 E0= -.11622242E+04  d E =-.189361E-01  mag=     1.0000
       N       E                     dE             d eps       ncg     rms          rms(c)
DAV:   1    -0.116221858693E+04    0.56376E-02   -0.28723E+00  1696   0.278E+00    0.668E-01
RMM:   2    -0.116222655352E+04   -0.79666E-02   -0.87737E-02  1707   0.438E-01    0.566E-01
RMM:   3    -0.116222725210E+04   -0.69858E-03   -0.21278E-02  1659   0.186E-01    0.394E-01
RMM:   4    -0.116222700981E+04    0.24229E-03   -0.97458E-03  1667   0.121E-01    0.195E-01
RMM:   5    -0.116222721672E+04   -0.20692E-03   -0.16654E-03  1901   0.562E-02    0.131E-01
RMM:   6    -0.116222715963E+04    0.57093E-04   -0.46225E-04  1650   0.269E-02    0.802E-02
RMM:   7    -0.116222716706E+04   -0.74276E-05   -0.20339E-04  1684   0.171E-02    0.442E-02
RMM:   8    -0.116222714962E+04    0.17441E-04   -0.19536E-04  1589   0.167E-02    0.249E-02
RMM:   9    -0.116222714958E+04    0.31963E-07   -0.50906E-05  1687   0.980E-03    0.173E-02
RMM:  10    -0.116222714642E+04    0.31678E-05   -0.16044E-05  1536   0.512E-03    0.108E-02
RMM:  11    -0.116222714738E+04   -0.96594E-06   -0.10028E-05  1575   0.376E-03    0.773E-03
RMM:  12    -0.116222714814E+04   -0.75381E-06   -0.20391E-06  1076   0.205E-03
   4 F= -.11622271E+04 E0= -.11622271E+04  d E =-.292320E-02  mag=     1.0000
       N       E                     dE             d eps       ncg     rms          rms(c)
DAV:   1    -0.116222886425E+04   -0.17169E-02   -0.51134E-01  1632   0.117E+00    0.285E-01
RMM:   2    -0.116223026011E+04   -0.13959E-02   -0.15430E-02  1714   0.185E-01    0.238E-01
RMM:   3    -0.116223039554E+04   -0.13543E-03   -0.38288E-03  1670   0.787E-02    0.163E-01
RMM:   4    -0.116223036110E+04    0.34442E-04   -0.16438E-03  1677   0.496E-02    0.826E-02
RMM:   5    -0.116223039696E+04   -0.35860E-04   -0.26843E-04  1914   0.229E-02    0.560E-02
RMM:   6    -0.116223039110E+04    0.58542E-05   -0.79686E-05  1616   0.112E-02    0.333E-02
RMM:   7    -0.116223039216E+04   -0.10577E-05   -0.37647E-05  1657   0.731E-03    0.177E-02
RMM:   8    -0.116223038938E+04    0.27854E-05   -0.34454E-05  1592   0.703E-03    0.102E-02
RMM:   9    -0.116223038969E+04   -0.31266E-06   -0.85621E-06  1636   0.398E-03
   5 F= -.11622304E+04 E0= -.11622304E+04  d E =-.616475E-02  mag=     1.0000
       N       E                     dE             d eps       ncg     rms          rms(c)
DAV:   1    -0.116222985107E+04    0.53831E-03   -0.16970E+00  1760   0.217E+00    0.349E-01
RMM:   2    -0.116223400385E+04   -0.41528E-02   -0.48113E-02  1711   0.333E-01    0.290E-01
RMM:   3    -0.116223439005E+04   -0.38621E-03   -0.11945E-02  1684   0.145E-01    0.220E-01
RMM:   4    -0.116223389265E+04    0.49741E-03   -0.42134E-03  1646   0.864E-02    0.115E-01
RMM:   5    -0.116223394871E+04   -0.56062E-04   -0.10972E-03  1760   0.447E-02    0.811E-02
RMM:   6    -0.116223396169E+04   -0.12984E-04   -0.20290E-04  1855   0.198E-02    0.551E-02
RMM:   7    -0.116223397766E+04   -0.15965E-04   -0.77543E-05  1621   0.119E-02    0.292E-02
RMM:   8    -0.116223397238E+04    0.52762E-05   -0.75562E-05  1586   0.108E-02    0.156E-02
RMM:   9    -0.116223397423E+04   -0.18539E-05   -0.21481E-05  1688   0.626E-03    0.115E-02
RMM:  10    -0.116223397351E+04    0.72763E-06   -0.37905E-06  1226   0.276E-03
   6 F= -.11622340E+04 E0= -.11622340E+04  d E =-.358382E-02  mag=     1.0000
       N       E                     dE             d eps       ncg     rms          rms(c)
DAV:   1    -0.116223416779E+04   -0.19356E-03   -0.10657E-01  1760   0.544E-01    0.879E-02
RMM:   2    -0.116223442479E+04   -0.25700E-03   -0.30271E-03  1705   0.838E-02    0.726E-02
RMM:   3    -0.116223444798E+04   -0.23187E-04   -0.74059E-04  1680   0.364E-02    0.547E-02
RMM:   4    -0.116223442134E+04    0.26642E-04   -0.27467E-04  1657   0.217E-02    0.285E-02
RMM:   5    -0.116223442537E+04   -0.40296E-05   -0.67434E-05  1754   0.111E-02    0.202E-02
RMM:   6    -0.116223442591E+04   -0.54291E-06   -0.12455E-05  1672   0.496E-03    0.136E-02
RMM:   7    -0.116223442698E+04   -0.10757E-05   -0.53211E-06  1437   0.315E-03    0.701E-03
RMM:   8    -0.116223442651E+04    0.47775E-06   -0.44419E-06  1393   0.265E-03
   7 F= -.11622344E+04 E0= -.11622344E+04  d E =-.403682E-02  mag=     1.0000
       N       E                     dE             d eps       ncg     rms          rms(c)
DAV:   1    -0.116223258457E+04    0.18424E-02   -0.14623E+00  1632   0.202E+00    0.287E-01
RMM:   2    -0.116223599294E+04   -0.34084E-02   -0.38468E-02  1720   0.299E-01    0.238E-01
RMM:   3    -0.116223656519E+04   -0.57225E-03   -0.97293E-03  1676   0.130E-01    0.186E-01
RMM:   4    -0.116223641791E+04    0.14728E-03   -0.29167E-03  1717   0.717E-02    0.102E-01
RMM:   5    -0.116223647416E+04   -0.56256E-04   -0.71122E-04  1766   0.362E-02    0.665E-02
RMM:   6    -0.116223648886E+04   -0.14692E-04   -0.14121E-04  1832   0.170E-02    0.395E-02
RMM:   7    -0.116223649937E+04   -0.10514E-04   -0.52203E-05  1661   0.964E-03    0.218E-02
RMM:   8    -0.116223649997E+04   -0.59606E-06   -0.31000E-05  1618   0.682E-03    0.150E-02
RMM:   9    -0.116223650063E+04   -0.66302E-06   -0.12151E-05  1570   0.474E-03    0.821E-03
RMM:  10    -0.116223650079E+04   -0.16047E-06   -0.29622E-06  1128   0.240E-03
   8 F= -.11622365E+04 E0= -.11622365E+04  d E =-.207428E-02  mag=     1.0000
       N       E                     dE             d eps       ncg     rms          rms(c)
DAV:   1    -0.116223664319E+04   -0.14256E-03   -0.14032E-01  1760   0.627E-01    0.890E-02
RMM:   2    -0.116223696509E+04   -0.32190E-03   -0.36947E-03  1718   0.930E-02    0.738E-02
RMM:   3    -0.116223701994E+04   -0.54854E-04   -0.92824E-04  1675   0.404E-02    0.577E-02
RMM:   4    -0.116223700924E+04    0.10697E-04   -0.28182E-04  1716   0.224E-02    0.313E-02
RMM:   5    -0.116223701580E+04   -0.65591E-05   -0.70726E-05  1757   0.112E-02    0.202E-02
RMM:   6    -0.116223701708E+04   -0.12752E-05   -0.13492E-05  1677   0.520E-03    0.121E-02
RMM:   7    -0.116223701799E+04   -0.91321E-06   -0.52930E-06  1432   0.313E-03
   9 F= -.11622370E+04 E0= -.11622370E+04  d E =-.259149E-02  mag=     1.0000
       N       E                     dE             d eps       ncg     rms          rms(c)
DAV:   1    -0.116223747626E+04   -0.45919E-03   -0.60775E-01  1536   0.131E+00    0.162E-01
RMM:   2    -0.116223851506E+04   -0.10388E-02   -0.12166E-02  1688   0.183E-01    0.142E-01
RMM:   3    -0.116223868410E+04   -0.16904E-03   -0.30657E-03  1673   0.791E-02    0.118E-01
RMM:   4    -0.116223861732E+04    0.66780E-04   -0.10076E-03  1681   0.443E-02    0.572E-02
RMM:   5    -0.116223864474E+04   -0.27418E-04   -0.27242E-04  1782   0.223E-02    0.372E-02
RMM:   6    -0.116223864422E+04    0.52176E-06   -0.55934E-05  1684   0.103E-02    0.213E-02
RMM:   7    -0.116223864928E+04   -0.50583E-05   -0.19881E-05  1654   0.600E-03    0.127E-02
RMM:   8    -0.116223864809E+04    0.11817E-05   -0.10632E-05  1535   0.416E-03    0.861E-03
RMM:   9    -0.116223864839E+04   -0.29896E-06   -0.56812E-06  1467   0.310E-03
  10 F= -.11622386E+04 E0= -.11622386E+04  d E =-.163040E-02  mag=     1.0000
       N       E                     dE             d eps       ncg     rms          rms(c)
DAV:   1    -0.116223865311E+04   -0.50156E-05   -0.54138E-03  1696   0.124E-01    0.154E-02
RMM:   2    -0.116223866224E+04   -0.91313E-05   -0.10914E-04  1684   0.173E-02    0.135E-02
RMM:   3    -0.116223866363E+04   -0.13890E-05   -0.26530E-05  1652   0.751E-03    0.112E-02
RMM:   4    -0.116223866300E+04    0.63367E-06   -0.94642E-06  1600   0.421E-03
  11 F= -.11622387E+04 E0= -.11622387E+04  d E =-.164500E-02  mag=     1.0000
       N       E                     dE             d eps       ncg     rms          rms(c)
DAV:   1    -0.116223915196E+04   -0.48833E-03   -0.56689E-01  1536   0.126E+00    0.156E-01
RMM:   2    -0.116224005298E+04   -0.90102E-03   -0.11083E-02  1686   0.176E-01    0.137E-01
RMM:   3    -0.116224015120E+04   -0.98212E-04   -0.26981E-03  1658   0.763E-02    0.115E-01
RMM:   4    -0.116224001556E+04    0.13564E-03   -0.10999E-03  1618   0.465E-02    0.513E-02
RMM:   5    -0.116224004465E+04   -0.29090E-04   -0.30683E-04  1763   0.239E-02    0.352E-02
RMM:   6    -0.116224004578E+04   -0.11306E-05   -0.55951E-05  1809   0.102E-02    0.224E-02
RMM:   7    -0.116224004972E+04   -0.39386E-05   -0.17280E-05  1595   0.563E-03    0.129E-02
RMM:   8    -0.116224004747E+04    0.22475E-05   -0.18364E-05  1548   0.509E-03    0.688E-03
RMM:   9    -0.116224004774E+04   -0.27251E-06   -0.39407E-06  1256   0.269E-03
  12 F= -.11622400E+04 E0= -.11622400E+04  d E =-.138474E-02  mag=     1.0000
       N       E                     dE             d eps       ncg     rms          rms(c)
DAV:   1    -0.116224004758E+04   -0.11141E-06   -0.22988E-04  1920   0.255E-02    0.420E-03
RMM:   2    -0.116224004811E+04   -0.53320E-06   -0.48143E-06  1384   0.363E-03
  13 F= -.11622400E+04 E0= -.11622400E+04  d E =-.138512E-02  mag=     1.0000
       N       E                     dE             d eps       ncg     rms          rms(c)
DAV:   1    -0.116223971380E+04    0.33378E-03   -0.58569E-01  1632   0.127E+00    0.172E-01
RMM:   2    -0.116224086525E+04   -0.11514E-02   -0.13744E-02  1712   0.183E-01    0.144E-01
RMM:   3    -0.116224103354E+04   -0.16830E-03   -0.34600E-03  1689   0.811E-02    0.115E-01
RMM:   4    -0.116224093833E+04    0.95215E-04   -0.10332E-03  1633   0.446E-02    0.581E-02
RMM:   5    -0.116224096815E+04   -0.29824E-04   -0.28767E-04  1716   0.231E-02    0.376E-02
RMM:   6    -0.116224097909E+04   -0.10933E-04   -0.59420E-05  1847   0.108E-02    0.227E-02
RMM:   7    -0.116224097995E+04   -0.86735E-06   -0.16754E-05  1604   0.550E-03    0.132E-02
RMM:   8    -0.116224097777E+04    0.21821E-05   -0.17399E-05  1548   0.497E-03    0.719E-03
RMM:   9    -0.116224097811E+04   -0.34124E-06   -0.43150E-06  1317   0.279E-03
  14 F= -.11622410E+04 E0= -.11622410E+04  d E =-.929998E-03  mag=     1.0000
