       N       E                     dE             d eps       ncg     rms          rms(c)
DAV:   1     0.499405794812E+04    0.49941E+04   -0.17093E+05  1800   0.914E+02
DAV:   2    -0.257280285800E+02   -0.50198E+04   -0.45975E+04  2556   0.211E+02
DAV:   3    -0.117335377396E+04   -0.11476E+04   -0.11420E+04  2088   0.111E+02
DAV:   4    -0.122200119371E+04   -0.48647E+02   -0.48401E+02  2052   0.302E+01
DAV:   5    -0.122325986231E+04   -0.12587E+01   -0.12558E+01  2304   0.452E+00    0.609E+01
RMM:   6    -0.121095894830E+04    0.12301E+02   -0.90183E+00  1586   0.364E+00    0.508E+01
RMM:   7    -0.119649997601E+04    0.14459E+02   -0.10027E+01  1584   0.369E+00    0.414E+01
RMM:   8    -0.116938671603E+04    0.27113E+02   -0.32733E+01  1584   0.665E+00    0.270E+01
RMM:   9    -0.116169874514E+04    0.76880E+01   -0.16626E+01  1584   0.472E+00    0.182E+01
RMM:  10    -0.116170288258E+04   -0.41374E-02   -0.17195E+01  1584   0.482E+00    0.906E+00
RMM:  11    -0.116139236031E+04    0.31052E+00   -0.82302E-01  1621   0.118E+00    0.485E+00
RMM:  12    -0.116100363692E+04    0.38872E+00   -0.83011E-01  1584   0.100E+00    0.271E+00
RMM:  13    -0.116097309782E+04    0.30539E-01   -0.26139E-01  1584   0.595E-01    0.100E+00
RMM:  14    -0.116097035433E+04    0.27435E-02   -0.44975E-02  1584   0.265E-01    0.571E-01
RMM:  15    -0.116097026962E+04    0.84717E-04   -0.12473E-02  1607   0.126E-01    0.299E-01
RMM:  16    -0.116096967881E+04    0.59081E-03   -0.12829E-03  1471   0.473E-02    0.229E-01
RMM:  17    -0.116096956795E+04    0.11085E-03   -0.18720E-03  1518   0.541E-02    0.119E-01
RMM:  18    -0.116096964538E+04   -0.77427E-04   -0.35231E-04  1100   0.210E-02
   1 F= -.11680220E+04 E0= -.11680220E+04  d E =-.116802E+04  mag=     1.0053
       N       E                     dE             d eps       ncg     rms          rms(c)
DAV:   1    -0.116096808485E+04    0.14831E-02   -0.36242E-01  1764   0.981E-01    0.166E-01
RMM:   2    -0.116096904143E+04   -0.95658E-03   -0.10906E-02  1584   0.143E-01    0.162E-01
RMM:   3    -0.116096900690E+04    0.34525E-04   -0.64993E-04  1388   0.348E-02
   2 F= -.11680216E+04 E0= -.11680216E+04  d E =0.474600E-03  mag=     1.0004
       N       E                     dE             d eps       ncg     rms          rms(c)
DAV:   1    -0.116096992726E+04   -0.88584E-03   -0.12180E-01  1692   0.565E-01    0.109E-01
RMM:   2    -0.116097031471E+04   -0.38744E-03   -0.35313E-03  1584   0.863E-02    0.107E-01
RMM:   3    -0.116097032531E+04   -0.10603E-04   -0.16049E-04  1088   0.191E-02
   3 F= -.11680228E+04 E0= -.11680228E+04  d E =-.750790E-03  mag=     1.0003
