       N       E                     dE             d eps       ncg     rms          rms(c)
DAV:   1     0.475746642464E+04    0.47575E+04   -0.18087E+05  1888   0.959E+02
DAV:   2    -0.631741050510E+02   -0.48206E+04   -0.44232E+04  2432   0.214E+02
DAV:   3    -0.120151102756E+04   -0.11383E+04   -0.11309E+04  1984   0.112E+02
DAV:   4    -0.124975268791E+04   -0.48242E+02   -0.47919E+02  1952   0.304E+01
DAV:   5    -0.125094445271E+04   -0.11918E+01   -0.11889E+01  2272   0.442E+00    0.727E+01
RMM:   6    -0.123217430845E+04    0.18770E+02   -0.18556E+01  1590   0.522E+00    0.507E+01
RMM:   7    -0.121534507928E+04    0.16829E+02   -0.15083E+01  1538   0.490E+00    0.398E+01
RMM:   8    -0.118664912481E+04    0.28696E+02   -0.45234E+01  1596   0.855E+00    0.241E+01
RMM:   9    -0.118160556623E+04    0.50436E+01   -0.26431E+01  1537   0.685E+00    0.133E+01
RMM:  10    -0.118300447734E+04   -0.13989E+01   -0.68852E+00  1546   0.379E+00    0.862E+00
RMM:  11    -0.118233943523E+04    0.66504E+00   -0.12910E+00  1545   0.165E+00    0.490E+00
RMM:  12    -0.118212740194E+04    0.21203E+00   -0.66473E-01  1544   0.117E+00    0.216E+00
RMM:  13    -0.118206120637E+04    0.66196E-01   -0.20509E-01  1558   0.660E-01    0.992E-01
RMM:  14    -0.118205939804E+04    0.18083E-02   -0.64539E-02  1570   0.360E-01    0.548E-01
RMM:  15    -0.118205714364E+04    0.22544E-02   -0.18932E-02  1644   0.206E-01    0.320E-01
RMM:  16    -0.118205746246E+04   -0.31881E-03   -0.10048E-02  1714   0.134E-01    0.181E-01
RMM:  17    -0.118205768375E+04   -0.22129E-03   -0.17801E-03  1686   0.660E-02    0.146E-01
RMM:  18    -0.118205782716E+04   -0.14341E-03   -0.12078E-03  1564   0.451E-02    0.895E-02
RMM:  19    -0.118205788159E+04   -0.54429E-04   -0.28768E-04  1607   0.231E-02    0.597E-02
RMM:  20    -0.118205789051E+04   -0.89256E-05   -0.11698E-04  1611   0.141E-02    0.468E-02
RMM:  21    -0.118205791048E+04   -0.19962E-04   -0.69476E-05  1592   0.111E-02    0.265E-02
RMM:  22    -0.118205790504E+04    0.54343E-05   -0.28817E-05  1565   0.695E-03    0.153E-02
RMM:  23    -0.118205790628E+04   -0.12368E-05   -0.16618E-05  1578   0.519E-03    0.103E-02
RMM:  24    -0.118205790665E+04   -0.37076E-06   -0.46005E-06  1216   0.277E-03
   1 F= -.11891854E+04 E0= -.11891854E+04  d E =-.118919E+04  mag=     2.9992
