       N       E                     dE             d eps       ncg     rms          rms(c)
DAV:   1     0.486699841417E+04    0.48670E+04   -0.17461E+05  1872   0.914E+02
DAV:   2    -0.592670579256E+02   -0.49263E+04   -0.45004E+04  2520   0.210E+02
DAV:   3    -0.117961596994E+04   -0.11203E+04   -0.11144E+04  2124   0.112E+02
DAV:   4    -0.123487205712E+04   -0.55256E+02   -0.54987E+02  2088   0.329E+01
DAV:   5    -0.123687502471E+04   -0.20030E+01   -0.19977E+01  2484   0.585E+00    0.627E+01
RMM:   6    -0.122315049470E+04    0.13725E+02   -0.79663E+00  1655   0.331E+00    0.511E+01
RMM:   7    -0.118865013623E+04    0.34500E+02   -0.59290E+01  1905   0.100E+01    0.415E+01
RMM:   8    -0.118261098048E+04    0.60392E+01   -0.46216E+00  1909   0.597E+00    0.303E+01
RMM:   9    -0.117525062298E+04    0.73604E+01   -0.94036E+00  1748   0.381E+00    0.216E+01
RMM:  10    -0.117437029035E+04    0.88033E+00   -0.26448E+01  1956   0.739E+00    0.143E+01
RMM:  11    -0.117623874581E+04   -0.18685E+01   -0.34890E+00  1895   0.401E+00    0.116E+01
RMM:  12    -0.117586164069E+04    0.37711E+00   -0.19254E+00  1914   0.202E+00    0.856E+00
RMM:  13    -0.117443024755E+04    0.14314E+01   -0.98000E-01  1827   0.146E+00    0.660E+00
RMM:  14    -0.117343841640E+04    0.99183E+00   -0.52079E-01  1859   0.112E+00    0.480E+00
RMM:  15    -0.117278930869E+04    0.64911E+00   -0.26016E-01  1996   0.533E-01    0.368E+00
RMM:  16    -0.117239202360E+04    0.39729E+00   -0.87792E-02  1960   0.289E-01    0.309E+00
RMM:  17    -0.117193756177E+04    0.45446E+00   -0.11187E-01  1951   0.270E-01    0.239E+00
RMM:  18    -0.117135628036E+04    0.58128E+00   -0.36299E-01  1997   0.466E-01    0.130E+00
RMM:  19    -0.117138548269E+04   -0.29202E-01   -0.13714E-02  1763   0.177E-01    0.126E+00
RMM:  20    -0.117168420010E+04   -0.29872E+00   -0.20090E-01  1969   0.383E-01    0.935E+00
RMM:  21    -0.117130196594E+04    0.38223E+00   -0.28337E-02  1830   0.221E-01    0.332E+00
RMM:  22    -0.117130848219E+04   -0.65163E-02   -0.29494E-03  1543   0.989E-02    0.296E+00
RMM:  23    -0.117129811935E+04    0.10363E-01   -0.39210E-03  1665   0.828E-02    0.216E+00
RMM:  24    -0.117130177507E+04   -0.36557E-02   -0.18579E-02  1942   0.139E-01    0.196E+00
RMM:  25    -0.117128503060E+04    0.16744E-01   -0.13207E-02  1745   0.125E-01    0.895E-01
RMM:  26    -0.117128666397E+04   -0.16334E-02   -0.18640E-03  1404   0.790E-02    0.585E-01
RMM:  27    -0.117128868129E+04   -0.20173E-02   -0.12070E-03  1343   0.558E-02    0.384E-01
RMM:  28    -0.117129032965E+04   -0.16484E-02   -0.13800E-03  1263   0.600E-02    0.331E-01
RMM:  29    -0.117129087310E+04   -0.54345E-03   -0.54579E-04  1158   0.485E-02    0.232E-01
RMM:  30    -0.117129110130E+04   -0.22820E-03   -0.35442E-04  1090   0.375E-02    0.237E-01
RMM:  31    -0.117129137951E+04   -0.27821E-03   -0.64395E-04  1149   0.369E-02    0.217E-01
RMM:  32    -0.117129249127E+04   -0.11118E-02   -0.37061E-04  1062   0.399E-02    0.366E-01
RMM:  33    -0.117129247939E+04    0.11888E-04   -0.60625E-04  1100   0.331E-02
   1 F= -.11783155E+04 E0= -.11783155E+04  d E =-.117832E+04  mag=     0.0296
       N       E                     dE             d eps       ncg     rms          rms(c)
DAV:   1    -0.117128742928E+04    0.50620E-02   -0.84060E-01  1800   0.162E+00    0.795E-01
RMM:   2    -0.117128734204E+04    0.87237E-04   -0.51283E-02  1917   0.259E-01    0.488E-01
RMM:   3    -0.117128733594E+04    0.61013E-05   -0.51097E-03  1562   0.135E-01    0.403E-01
RMM:   4    -0.117128643032E+04    0.90562E-03   -0.31057E-03  1767   0.839E-02    0.282E-01
RMM:   5    -0.117128645280E+04   -0.22485E-04   -0.22898E-03  1806   0.789E-02    0.181E-01
RMM:   6    -0.117128626981E+04    0.18299E-03   -0.65354E-04  1285   0.544E-02    0.618E-02
RMM:   7    -0.117128629488E+04   -0.25076E-04   -0.26130E-04  1120   0.333E-02
   2 F= -.11783094E+04 E0= -.11783094E+04  d E =0.605962E-02  mag=     0.0005
       N       E                     dE             d eps       ncg     rms          rms(c)
DAV:   1    -0.117129024722E+04   -0.39774E-02   -0.57265E-01  1800   0.133E+00    0.497E-01
RMM:   2    -0.117129209441E+04   -0.18472E-02   -0.30629E-02  1873   0.207E-01    0.348E-01
RMM:   3    -0.117129187211E+04    0.22230E-03   -0.24601E-03  1446   0.106E-01    0.324E-01
RMM:   4    -0.117129122221E+04    0.64990E-03   -0.21512E-03  1728   0.700E-02    0.211E-01
RMM:   5    -0.117129131895E+04   -0.96735E-04   -0.21234E-03  1783   0.911E-02    0.995E-02
RMM:   6    -0.117129122947E+04    0.89474E-04   -0.30487E-04  1187   0.425E-02
   3 F= -.11783142E+04 E0= -.11783142E+04  d E =0.122817E-02  mag=     0.0004
