       N       E                     dE             d eps       ncg     rms          rms(c)
DAV:   1     0.472390190423E+04    0.47239E+04   -0.17869E+05  1888   0.947E+02
DAV:   2    -0.672897652180E+02   -0.47912E+04   -0.43737E+04  2400   0.213E+02
DAV:   3    -0.119526944291E+04   -0.11280E+04   -0.11211E+04  1984   0.112E+02
DAV:   4    -0.124290195776E+04   -0.47633E+02   -0.47304E+02  1856   0.302E+01
DAV:   5    -0.124415073482E+04   -0.12488E+01   -0.12444E+01  2304   0.470E+00    0.793E+01
RMM:   6    -0.122450839919E+04    0.19642E+02   -0.34856E+01  1645   0.685E+00    0.647E+01
RMM:   7    -0.121350541154E+04    0.11003E+02   -0.73313E+00  1542   0.385E+00    0.490E+01
RMM:   8    -0.119101160339E+04    0.22494E+02   -0.28993E+01  1656   0.686E+00    0.333E+01
RMM:   9    -0.118128576182E+04    0.97258E+01   -0.12024E+01  1571   0.492E+00    0.267E+01
RMM:  10    -0.117289887100E+04    0.83869E+01   -0.19733E+01  1603   0.572E+00    0.170E+01
RMM:  11    -0.117348732457E+04   -0.58845E+00   -0.83937E+00  1548   0.395E+00    0.950E+00
RMM:  12    -0.117389987257E+04   -0.41255E+00   -0.15355E+00  1687   0.189E+00    0.701E+00
RMM:  13    -0.117337707496E+04    0.52280E+00   -0.10490E+00  1541   0.136E+00    0.286E+00
RMM:  14    -0.117336337605E+04    0.13699E-01   -0.28173E-01  1539   0.759E-01    0.205E+00
RMM:  15    -0.117336219914E+04    0.11769E-02   -0.38088E-02  1632   0.331E-01    0.102E+00
RMM:  16    -0.117336166994E+04    0.52921E-03   -0.26451E-02  1547   0.226E-01    0.517E-01
RMM:  17    -0.117336078477E+04    0.88517E-03   -0.51215E-03  1665   0.109E-01    0.363E-01
RMM:  18    -0.117336102712E+04   -0.24236E-03   -0.21338E-03  1687   0.664E-02    0.255E-01
RMM:  19    -0.117336104042E+04   -0.13303E-04   -0.64059E-04  1690   0.369E-02    0.191E-01
RMM:  20    -0.117336099671E+04    0.43718E-04   -0.11814E-03  1545   0.464E-02    0.506E-02
RMM:  21    -0.117336099217E+04    0.45414E-05   -0.14736E-04  1619   0.203E-02    0.469E-02
RMM:  22    -0.117336098964E+04    0.25236E-05   -0.59537E-05  1571   0.109E-02    0.378E-02
RMM:  23    -0.117336098608E+04    0.35607E-05   -0.21473E-05  1701   0.672E-03    0.220E-02
RMM:  24    -0.117336098584E+04    0.24229E-06   -0.10399E-05  1519   0.438E-03    0.133E-02
RMM:  25    -0.117336098739E+04   -0.15473E-05   -0.50570E-06  1309   0.317E-03    0.726E-03
RMM:  26    -0.117336098792E+04   -0.53539E-06   -0.16887E-06  1046   0.189E-03
   1 F= -.11804192E+04 E0= -.11804192E+04  d E =-.118042E+04  mag=    -0.0002
       N       E                     dE             d eps       ncg     rms          rms(c)
DAV:   1    -0.117335919533E+04    0.17921E-02   -0.29956E-01  1568   0.103E+00    0.124E-01
RMM:   2    -0.117336006168E+04   -0.86636E-03   -0.96796E-03  1655   0.161E-01    0.119E-01
RMM:   3    -0.117336023733E+04   -0.17565E-03   -0.23743E-03  1834   0.692E-02    0.113E-01
RMM:   4    -0.117336019435E+04    0.42986E-04   -0.34155E-04  2020   0.265E-02    0.105E-01
RMM:   5    -0.117336004033E+04    0.15402E-03   -0.64091E-04  1548   0.298E-02    0.530E-02
RMM:   6    -0.117336009559E+04   -0.55262E-04   -0.41311E-04  1552   0.249E-02    0.464E-02
RMM:   7    -0.117336003678E+04    0.58806E-04   -0.70909E-05  1545   0.114E-02    0.317E-02
RMM:   8    -0.117336003435E+04    0.24293E-05   -0.11506E-04  1543   0.112E-02    0.132E-02
RMM:   9    -0.117336003491E+04   -0.55999E-06   -0.14789E-05  1525   0.566E-03    0.127E-02
RMM:  10    -0.117336003237E+04    0.25468E-05   -0.18626E-05  1543   0.523E-03    0.377E-03
RMM:  11    -0.117336003285E+04   -0.48539E-06   -0.57424E-06  1416   0.302E-03
   2 F= -.11804186E+04 E0= -.11804186E+04  d E =0.567708E-03  mag=    -0.0000
       N       E                     dE             d eps       ncg     rms          rms(c)
DAV:   1    -0.117336107668E+04   -0.10443E-02   -0.10865E-01  1664   0.617E-01    0.757E-02
RMM:   2    -0.117336132639E+04   -0.24971E-03   -0.29053E-03  1643   0.934E-02    0.714E-02
RMM:   3    -0.117336136697E+04   -0.40586E-04   -0.66681E-04  1745   0.387E-02    0.651E-02
RMM:   4    -0.117336134408E+04    0.22890E-04   -0.10830E-04  1903   0.154E-02    0.576E-02
RMM:   5    -0.117336130237E+04    0.41709E-04   -0.20945E-04  1550   0.174E-02    0.256E-02
RMM:   6    -0.117336131276E+04   -0.10384E-04   -0.81048E-05  1569   0.118E-02    0.221E-02
RMM:   7    -0.117336130007E+04    0.12682E-04   -0.13913E-05  1530   0.520E-03    0.145E-02
RMM:   8    -0.117336130036E+04   -0.28862E-06   -0.28282E-05  1534   0.556E-03    0.585E-03
RMM:   9    -0.117336129995E+04    0.41674E-06   -0.37508E-06  1301   0.278E-03
   3 F= -.11804196E+04 E0= -.11804196E+04  d E =-.466174E-03  mag=    -0.0000
