       N       E                     dE             d eps       ncg     rms          rms(c)
DAV:   1     0.464412990216E+04    0.46441E+04   -0.17521E+05  1908   0.907E+02
DAV:   2    -0.118305707135E+03   -0.47624E+04   -0.43311E+04  2520   0.204E+02
DAV:   3    -0.118837293825E+04   -0.10701E+04   -0.10646E+04  2160   0.105E+02
DAV:   4    -0.123004296074E+04   -0.41670E+02   -0.41482E+02  2016   0.272E+01
DAV:   5    -0.123110816739E+04   -0.10652E+01   -0.10634E+01  2412   0.405E+00    0.660E+01
RMM:   6    -0.121907092928E+04    0.12037E+02   -0.36336E+01  1589   0.576E+00    0.536E+01
RMM:   7    -0.120233221049E+04    0.16739E+02   -0.73391E+00  1584   0.303E+00    0.427E+01
RMM:   8    -0.117816475162E+04    0.24167E+02   -0.26602E+01  1584   0.594E+00    0.292E+01
RMM:   9    -0.116457416972E+04    0.13591E+02   -0.21918E+01  1584   0.532E+00    0.205E+01
RMM:  10    -0.116458391960E+04   -0.97499E-02   -0.22699E+01  1584   0.537E+00    0.920E+00
RMM:  11    -0.116419389490E+04    0.39002E+00   -0.13334E+00  1619   0.142E+00    0.688E+00
RMM:  12    -0.116397507231E+04    0.21882E+00   -0.17536E+00  1584   0.128E+00    0.537E+00
RMM:  13    -0.116339954484E+04    0.57553E+00   -0.92389E-01  1584   0.954E-01    0.129E+00
RMM:  14    -0.116336334723E+04    0.36198E-01   -0.96996E-02  1590   0.324E-01    0.991E-01
RMM:  15    -0.116335510604E+04    0.82412E-02   -0.19078E-02  1612   0.147E-01    0.550E-01
RMM:  16    -0.116335367113E+04    0.14349E-02   -0.36936E-03  1572   0.672E-02    0.390E-01
RMM:  17    -0.116335314059E+04    0.53054E-03   -0.31591E-03  1585   0.601E-02    0.217E-01
RMM:  18    -0.116335317011E+04   -0.29522E-04   -0.91990E-04  1397   0.343E-02
   1 F= -.11704246E+04 E0= -.11704246E+04  d E =-.117042E+04  mag=     0.0032
       N       E                     dE             d eps       ncg     rms          rms(c)
DAV:   1    -0.116334128341E+04    0.11857E-01   -0.24945E+00  1800   0.270E+00    0.608E-01
RMM:   2    -0.116336058381E+04   -0.19300E-01   -0.20550E-01  1584   0.457E-01    0.570E-01
RMM:   3    -0.116335577348E+04    0.48103E-02   -0.68333E-03  1693   0.838E-02    0.514E-01
RMM:   4    -0.116335437996E+04    0.13935E-02   -0.47927E-03  1584   0.749E-02    0.202E-01
RMM:   5    -0.116335453228E+04   -0.15232E-03   -0.13174E-03  1584   0.410E-02    0.864E-02
RMM:   6    -0.116335438127E+04    0.15101E-03   -0.16083E-04  1067   0.144E-02    0.589E-02
RMM:   7    -0.116335436673E+04    0.14541E-04   -0.26463E-04  1167   0.178E-02
   2 F= -.11704256E+04 E0= -.11704256E+04  d E =-.101010E-02  mag=    -0.0001
       N       E                     dE             d eps       ncg     rms          rms(c)
DAV:   1    -0.116335410661E+04    0.27465E-03   -0.55633E-01  1836   0.127E+00    0.291E-01
RMM:   2    -0.116335824121E+04   -0.41346E-02   -0.44913E-02  1584   0.213E-01    0.276E-01
RMM:   3    -0.116335712280E+04    0.11184E-02   -0.14146E-03  1244   0.385E-02    0.248E-01
RMM:   4    -0.116335672527E+04    0.39753E-03   -0.12557E-03  1576   0.391E-02    0.937E-02
RMM:   5    -0.116335675477E+04   -0.29502E-04   -0.27880E-04  1158   0.198E-02
   3 F= -.11704281E+04 E0= -.11704281E+04  d E =-.348055E-02  mag=    -0.0000
       N       E                     dE             d eps       ncg     rms          rms(c)
DAV:   1    -0.116335423281E+04    0.24925E-02   -0.68990E-01  1836   0.150E+00    0.258E-01
RMM:   2    -0.116335916146E+04   -0.49287E-02   -0.55068E-02  1584   0.246E-01    0.213E-01
RMM:   3    -0.116335756376E+04    0.15977E-02   -0.18903E-03  1327   0.476E-02    0.180E-01
RMM:   4    -0.116335700097E+04    0.56278E-03   -0.24610E-03  1584   0.526E-02    0.709E-02
RMM:   5    -0.116335699229E+04    0.86885E-05   -0.21263E-04  1095   0.183E-02
   4 F= -.11704280E+04 E0= -.11704280E+04  d E =0.116534E-03  mag=    -0.0000
       N       E                     dE             d eps       ncg     rms          rms(c)
DAV:   1    -0.116335709154E+04   -0.90567E-04   -0.18064E-01  1872   0.767E-01    0.125E-01
RMM:   2    -0.116335832400E+04   -0.12325E-02   -0.14098E-02  1584   0.123E-01    0.102E-01
RMM:   3    -0.116335788682E+04    0.43718E-03   -0.47605E-04  1111   0.243E-02    0.854E-02
RMM:   4    -0.116335771648E+04    0.17035E-03   -0.77874E-04  1538   0.299E-02    0.320E-02
RMM:   5    -0.116335771312E+04    0.33606E-05   -0.49245E-05  1013   0.949E-03
   5 F= -.11704289E+04 E0= -.11704289E+04  d E =-.786689E-03  mag=    -0.0000
