       N       E                     dE             d eps       ncg     rms          rms(c)
DAV:   1     0.495589955446E+04    0.49559E+04   -0.16926E+05  1800   0.906E+02
DAV:   2    -0.251655817953E+02   -0.49811E+04   -0.45319E+04  2520   0.210E+02
DAV:   3    -0.117170687997E+04   -0.11465E+04   -0.11415E+04  2160   0.111E+02
DAV:   4    -0.121861044872E+04   -0.46904E+02   -0.46683E+02  2016   0.296E+01
DAV:   5    -0.121982113049E+04   -0.12107E+01   -0.12087E+01  2412   0.445E+00    0.598E+01
RMM:   6    -0.120821543866E+04    0.11606E+02   -0.68042E+00  1584   0.315E+00    0.494E+01
RMM:   7    -0.117142403734E+04    0.36791E+02   -0.48899E+01  1584   0.809E+00    0.298E+01
RMM:   8    -0.115984793226E+04    0.11576E+02   -0.20010E+01  1584   0.520E+00    0.211E+01
RMM:   9    -0.115873829393E+04    0.11096E+01   -0.28007E+01  1584   0.603E+00    0.917E+00
RMM:  10    -0.115827149142E+04    0.46680E+00   -0.85885E-01  1616   0.140E+00    0.490E+00
RMM:  11    -0.115785529929E+04    0.41619E+00   -0.10867E+00  1584   0.116E+00    0.206E+00
RMM:  12    -0.115781697159E+04    0.38328E-01   -0.14333E-01  1585   0.501E-01    0.892E-01
RMM:  13    -0.115780825301E+04    0.87186E-02   -0.11235E-01  1584   0.409E-01    0.439E-01
RMM:  14    -0.115780371399E+04    0.45390E-02   -0.17103E-02  1585   0.169E-01    0.200E-01
RMM:  15    -0.115780383785E+04   -0.12386E-03   -0.26580E-03  1624   0.672E-02    0.123E-01
RMM:  16    -0.115780405233E+04   -0.21448E-03   -0.78222E-04  1582   0.410E-02    0.103E-01
RMM:  17    -0.115780401569E+04    0.36642E-04   -0.59208E-04  1419   0.332E-02
   1 F= -.11647691E+04 E0= -.11647669E+04  d E =-.116477E+04  mag=    -0.9523
       N       E                     dE             d eps       ncg     rms          rms(c)
DAV:   1    -0.115780336954E+04    0.68279E-03   -0.43559E-01  1728   0.106E+00    0.197E-01
RMM:   2    -0.115780428115E+04   -0.91161E-03   -0.13463E-02  1584   0.167E-01    0.197E-01
RMM:   3    -0.115780415049E+04    0.13066E-03   -0.88606E-04  1542   0.473E-02    0.189E-01
RMM:   4    -0.115780323992E+04    0.91056E-03   -0.15774E-03  1584   0.443E-02    0.101E-01
RMM:   5    -0.115780315245E+04    0.87475E-04   -0.15331E-03  1584   0.441E-02    0.549E-02
RMM:   6    -0.115780306443E+04    0.88017E-04   -0.35322E-04  1321   0.195E-02
   2 F= -.11647682E+04 E0= -.11647660E+04  d E =0.926209E-03  mag=    -0.9454
       N       E                     dE             d eps       ncg     rms          rms(c)
DAV:   1    -0.115780502207E+04   -0.18696E-02   -0.16590E-01  1656   0.652E-01    0.114E-01
RMM:   2    -0.115780525517E+04   -0.23310E-03   -0.42348E-03  1584   0.990E-02    0.116E-01
RMM:   3    -0.115780520482E+04    0.50357E-04   -0.21190E-04  1139   0.242E-02
   3 F= -.11647703E+04 E0= -.11647681E+04  d E =-.119709E-02  mag=    -0.9464
       N       E                     dE             d eps       ncg     rms          rms(c)
DAV:   1    -0.115780501222E+04    0.24296E-03   -0.31215E-01  1728   0.889E-01    0.256E-01
RMM:   2    -0.115780484004E+04    0.17218E-03   -0.73086E-03  1584   0.130E-01    0.234E-01
RMM:   3    -0.115780335706E+04    0.14830E-02   -0.12887E-03  1584   0.452E-02    0.161E-01
RMM:   4    -0.115780242822E+04    0.92884E-03   -0.31985E-03  1584   0.632E-02    0.687E-02
RMM:   5    -0.115780238435E+04    0.43866E-04   -0.15340E-04  1059   0.180E-02
   4 F= -.11647674E+04 E0= -.11647653E+04  d E =0.292662E-02  mag=    -0.9484
       N       E                     dE             d eps       ncg     rms          rms(c)
DAV:   1    -0.115780591398E+04   -0.34858E-02   -0.20966E-01  1728   0.727E-01    0.159E-01
RMM:   2    -0.115780598436E+04   -0.70379E-04   -0.50157E-03  1584   0.108E-01    0.149E-01
RMM:   3    -0.115780553002E+04    0.45433E-03   -0.34369E-04  1211   0.273E-02    0.121E-01
RMM:   4    -0.115780490737E+04    0.62265E-03   -0.25049E-03  1584   0.567E-02    0.420E-02
RMM:   5    -0.115780490315E+04    0.42259E-05   -0.39713E-05  1012   0.126E-02
   5 F= -.11647700E+04 E0= -.11647678E+04  d E =0.323521E-03  mag=    -0.9468
