       N       E                     dE             d eps       ncg     rms          rms(c)
DAV:   1     0.503480995023E+04    0.50348E+04   -0.17329E+05  1836   0.918E+02
DAV:   2    -0.382450072476E+02   -0.50731E+04   -0.46353E+04  2556   0.211E+02
DAV:   3    -0.119577673959E+04   -0.11575E+04   -0.11524E+04  2124   0.111E+02
DAV:   4    -0.124415183774E+04   -0.48375E+02   -0.48118E+02  2088   0.295E+01
DAV:   5    -0.124562694490E+04   -0.14751E+01   -0.14715E+01  2520   0.432E+00    0.638E+01
RMM:   6    -0.123194484720E+04    0.13682E+02   -0.81319E+00  1587   0.321E+00    0.521E+01
RMM:   7    -0.118876614934E+04    0.43179E+02   -0.76700E+01  1590   0.973E+00    0.289E+01
RMM:   8    -0.117934904228E+04    0.94171E+01   -0.33611E+01  1594   0.658E+00    0.151E+01
RMM:   9    -0.118000658320E+04   -0.65754E+00   -0.12340E+01  1589   0.404E+00    0.926E+00
RMM:  10    -0.117927653600E+04    0.73005E+00   -0.15285E+00  1594   0.143E+00    0.426E+00
RMM:  11    -0.117900984069E+04    0.26670E+00   -0.10433E+00  1589   0.113E+00    0.191E+00
RMM:  12    -0.117894417032E+04    0.65670E-01   -0.19256E-01  1601   0.439E-01    0.467E-01
RMM:  13    -0.117894245571E+04    0.17146E-02   -0.34385E-02  1715   0.185E-01    0.280E-01
RMM:  14    -0.117894181840E+04    0.63731E-03   -0.48814E-03  1663   0.739E-02    0.162E-01
RMM:  15    -0.117894207132E+04   -0.25292E-03   -0.23315E-03  1638   0.509E-02    0.118E-01
RMM:  16    -0.117894228359E+04   -0.21227E-03   -0.12242E-03  1606   0.409E-02    0.930E-02
RMM:  17    -0.117894222030E+04    0.63290E-04   -0.25327E-04  1136   0.186E-02
   1 F= -.11860843E+04 E0= -.11860770E+04  d E =-.118608E+04  mag=    -0.7606
       N       E                     dE             d eps       ncg     rms          rms(c)
DAV:   1    -0.117893507185E+04    0.72117E-02   -0.50143E+00  1728   0.251E+00    0.110E+00
RMM:   2    -0.117894347206E+04   -0.84002E-02   -0.12195E-01  1640   0.346E-01    0.104E+00
RMM:   3    -0.117893987523E+04    0.35968E-02   -0.53694E-03  1667   0.695E-02    0.936E-01
RMM:   4    -0.117893934647E+04    0.52876E-03   -0.17778E-02  1596   0.113E-01    0.375E-01
RMM:   5    -0.117893857010E+04    0.77638E-03   -0.14613E-03  1294   0.331E-02    0.129E-01
RMM:   6    -0.117893813135E+04    0.43875E-03   -0.12501E-03  1338   0.271E-02    0.678E-02
RMM:   7    -0.117893806553E+04    0.65816E-04   -0.35023E-04  1119   0.165E-02
   2 F= -.11860818E+04 E0= -.11860749E+04  d E =0.248548E-02  mag=    -0.7695
       N       E                     dE             d eps       ncg     rms          rms(c)
DAV:   1    -0.117894691607E+04   -0.87847E-02   -0.14155E+00  1692   0.133E+00    0.581E-01
RMM:   2    -0.117894864225E+04   -0.17262E-02   -0.28203E-02  1609   0.171E-01    0.561E-01
RMM:   3    -0.117894758591E+04    0.10563E-02   -0.10807E-03  1279   0.318E-02    0.507E-01
RMM:   4    -0.117894736177E+04    0.22415E-03   -0.43715E-03  1563   0.546E-02    0.203E-01
RMM:   5    -0.117894722216E+04    0.13961E-03   -0.45161E-04  1121   0.185E-02    0.609E-02
RMM:   6    -0.117894712122E+04    0.10094E-03   -0.26493E-04  1096   0.127E-02    0.350E-02
RMM:   7    -0.117894709919E+04    0.22029E-04   -0.10367E-04  1021   0.929E-03
   3 F= -.11860900E+04 E0= -.11860831E+04  d E =-.565177E-02  mag=    -0.7702
       N       E                     dE             d eps       ncg     rms          rms(c)
DAV:   1    -0.117894556952E+04    0.15517E-02   -0.24784E+00  1656   0.181E+00    0.629E-01
RMM:   2    -0.117894873065E+04   -0.31611E-02   -0.42423E-02  1606   0.221E-01    0.585E-01
RMM:   3    -0.117894739477E+04    0.13359E-02   -0.18734E-03  1511   0.465E-02    0.494E-01
RMM:   4    -0.117894751252E+04   -0.11775E-03   -0.11377E-02  1588   0.887E-02    0.179E-01
RMM:   5    -0.117894683788E+04    0.67464E-03   -0.52402E-04  1160   0.209E-02    0.105E-01
RMM:   6    -0.117894677626E+04    0.61622E-04   -0.10959E-03  1295   0.244E-02    0.391E-02
RMM:   7    -0.117894676937E+04    0.68866E-05   -0.18572E-04  1059   0.119E-02
   4 F= -.11860908E+04 E0= -.11860840E+04  d E =-.860957E-03  mag=    -0.7732
       N       E                     dE             d eps       ncg     rms          rms(c)
DAV:   1    -0.117894954807E+04   -0.27718E-02   -0.55802E-01  1728   0.885E-01    0.299E-01
RMM:   2    -0.117895040619E+04   -0.85812E-03   -0.11439E-02  1589   0.103E-01    0.280E-01
RMM:   3    -0.117895010237E+04    0.30381E-03   -0.41945E-04  1167   0.218E-02    0.240E-01
RMM:   4    -0.117895012014E+04   -0.17770E-04   -0.26709E-03  1549   0.437E-02    0.850E-02
RMM:   5    -0.117894997899E+04    0.14115E-03   -0.10322E-04  1037   0.103E-02    0.510E-02
RMM:   6    -0.117894996003E+04    0.18962E-04   -0.27306E-04  1082   0.124E-02
   5 F= -.11860934E+04 E0= -.11860866E+04  d E =-.348840E-02  mag=    -0.7720
       N       E                     dE             d eps       ncg     rms          rms(c)
DAV:   1    -0.117895097300E+04   -0.99400E-03   -0.68769E-01  1728   0.111E+00    0.223E-01
RMM:   2    -0.117895186074E+04   -0.88774E-03   -0.13618E-02  1584   0.152E-01    0.203E-01
RMM:   3    -0.117895142024E+04    0.44050E-03   -0.50961E-04  1248   0.282E-02    0.178E-01
RMM:   4    -0.117895104454E+04    0.37571E-03   -0.29818E-03  1586   0.556E-02    0.677E-02
RMM:   5    -0.117895099306E+04    0.51480E-04   -0.85909E-05  1053   0.123E-02
   6 F= -.11860949E+04 E0= -.11860880E+04  d E =-.147142E-02  mag=    -0.7694
       N       E                     dE             d eps       ncg     rms          rms(c)
DAV:   1    -0.117895126280E+04   -0.21827E-03   -0.38126E-02  1728   0.262E-01    0.494E-02
RMM:   2    -0.117895128316E+04   -0.20360E-04   -0.60606E-04  1164   0.307E-02
   7 F= -.11860951E+04 E0= -.11860882E+04  d E =-.165775E-02  mag=    -0.7698
       N       E                     dE             d eps       ncg     rms          rms(c)
DAV:   1    -0.117895141792E+04   -0.15512E-03   -0.57061E-01  1728   0.102E+00    0.187E-01
RMM:   2    -0.117895220859E+04   -0.79066E-03   -0.10114E-02  1594   0.131E-01    0.167E-01
RMM:   3    -0.117895205217E+04    0.15641E-03   -0.39234E-04  1207   0.245E-02    0.149E-01
RMM:   4    -0.117895212405E+04   -0.71875E-04   -0.14906E-03  1549   0.387E-02    0.625E-02
RMM:   5    -0.117895202790E+04    0.96144E-04   -0.73984E-05  1044   0.102E-02
   8 F= -.11860959E+04 E0= -.11860891E+04  d E =-.821113E-03  mag=    -0.7712
       N       E                     dE             d eps       ncg     rms          rms(c)
DAV:   1    -0.117895206853E+04    0.55517E-04   -0.33325E-02  1728   0.246E-01    0.470E-02
RMM:   2    -0.117895210171E+04   -0.33181E-04   -0.51895E-04  1113   0.289E-02
   9 F= -.11860960E+04 E0= -.11860891E+04  d E =-.875715E-03  mag=    -0.7711
