       N       E                     dE             d eps       ncg     rms          rms(c)
DAV:   1     0.491697143114E+04    0.49170E+04   -0.16898E+05  1692   0.986E+02
DAV:   2     0.190866746017E+02   -0.48979E+04   -0.44904E+04  2232   0.220E+02
DAV:   3    -0.116882592907E+04   -0.11879E+04   -0.11815E+04  1872   0.119E+02
DAV:   4    -0.122178997069E+04   -0.52964E+02   -0.52602E+02  1872   0.333E+01
DAV:   5    -0.122306335360E+04   -0.12734E+01   -0.12689E+01  2016   0.489E+00    0.627E+01
RMM:   6    -0.120776057336E+04    0.15303E+02   -0.14148E+01  1440   0.420E+00    0.494E+01
RMM:   7    -0.118531533797E+04    0.22445E+02   -0.18527E+01  1440   0.537E+00    0.359E+01
RMM:   8    -0.116114650594E+04    0.24169E+02   -0.37539E+01  1440   0.758E+00    0.231E+01
RMM:   9    -0.115779393080E+04    0.33526E+01   -0.32578E+01  1440   0.705E+00    0.103E+01
RMM:  10    -0.115848661238E+04   -0.69268E+00   -0.21553E+00  1466   0.198E+00    0.797E+00
RMM:  11    -0.115766095498E+04    0.82566E+00   -0.23721E+00  1440   0.178E+00    0.274E+00
RMM:  12    -0.115755878508E+04    0.10217E+00   -0.12110E-01  1454   0.411E-01    0.141E+00
RMM:  13    -0.115751707661E+04    0.41708E-01   -0.17043E-01  1440   0.495E-01    0.474E-01
RMM:  14    -0.115752025707E+04   -0.31805E-02   -0.11682E-02  1463   0.146E-01    0.231E-01
RMM:  15    -0.115751961620E+04    0.64086E-03   -0.18761E-03  1431   0.513E-02    0.177E-01
RMM:  16    -0.115751999850E+04   -0.38230E-03   -0.14508E-03  1440   0.505E-02    0.890E-02
RMM:  17    -0.115752022267E+04   -0.22416E-03   -0.34630E-04  1006   0.249E-02    0.500E-02
RMM:  18    -0.115752030499E+04   -0.82322E-04   -0.12921E-04   908   0.152E-02
   1 F= -.11645885E+04 E0= -.11645837E+04  d E =-.116459E+04  mag=    -0.8673
       N       E                     dE             d eps       ncg     rms          rms(c)
DAV:   1    -0.115751697360E+04    0.32491E-02   -0.22258E+00  1620   0.227E+00    0.524E-01
RMM:   2    -0.115751975222E+04   -0.27786E-02   -0.45383E-02  1442   0.325E-01    0.479E-01
RMM:   3    -0.115751864943E+04    0.11028E-02   -0.31658E-03  1521   0.697E-02    0.429E-01
RMM:   4    -0.115751597249E+04    0.26769E-02   -0.80232E-03  1440   0.108E-01    0.181E-01
RMM:   5    -0.115751600530E+04   -0.32810E-04   -0.17622E-03  1441   0.525E-02    0.100E-01
RMM:   6    -0.115751580693E+04    0.19837E-03   -0.80305E-04  1328   0.304E-02    0.396E-02
RMM:   7    -0.115751581733E+04   -0.10397E-04   -0.41477E-05   878   0.948E-03
   2 F= -.11645842E+04 E0= -.11645797E+04  d E =0.425180E-02  mag=    -0.8687
       N       E                     dE             d eps       ncg     rms          rms(c)
DAV:   1    -0.115752439673E+04   -0.85898E-02   -0.80161E-01  1512   0.136E+00    0.311E-01
RMM:   2    -0.115752507260E+04   -0.67587E-03   -0.13540E-02  1440   0.187E-01    0.285E-01
RMM:   3    -0.115752459782E+04    0.47478E-03   -0.88553E-04  1204   0.388E-02    0.250E-01
RMM:   4    -0.115752369166E+04    0.90616E-03   -0.28915E-03  1440   0.652E-02    0.103E-01
RMM:   5    -0.115752368641E+04    0.52498E-05   -0.47658E-04  1217   0.284E-02
   3 F= -.11645920E+04 E0= -.11645874E+04  d E =-.346824E-02  mag=    -0.8653
       N       E                     dE             d eps       ncg     rms          rms(c)
DAV:   1    -0.115752625107E+04   -0.25594E-02   -0.80971E-01  1512   0.133E+00    0.279E-01
RMM:   2    -0.115752663014E+04   -0.37907E-03   -0.11238E-02  1440   0.175E-01    0.244E-01
RMM:   3    -0.115752571714E+04    0.91300E-03   -0.83368E-04  1398   0.407E-02    0.188E-01
RMM:   4    -0.115752485049E+04    0.86665E-03   -0.46296E-03  1440   0.781E-02    0.623E-02
RMM:   5    -0.115752477316E+04    0.77328E-04   -0.98645E-05   912   0.153E-02
   4 F= -.11645926E+04 E0= -.11645880E+04  d E =-.643358E-03  mag=    -0.8639
       N       E                     dE             d eps       ncg     rms          rms(c)
DAV:   1    -0.115752562538E+04   -0.77489E-03   -0.14407E-01  1584   0.562E-01    0.106E-01
RMM:   2    -0.115752565710E+04   -0.31723E-04   -0.17838E-03  1432   0.694E-02    0.965E-02
RMM:   3    -0.115752548941E+04    0.16769E-03   -0.13199E-04   876   0.172E-02    0.755E-02
RMM:   4    -0.115752532350E+04    0.16591E-03   -0.94802E-04  1418   0.361E-02    0.236E-02
RMM:   5    -0.115752531592E+04    0.75876E-05   -0.16338E-05   846   0.697E-03
   5 F= -.11645933E+04 E0= -.11645887E+04  d E =-.137518E-02  mag=    -0.8647
       N       E                     dE             d eps       ncg     rms          rms(c)
DAV:   1    -0.115752623837E+04   -0.91487E-03   -0.60782E-01  1584   0.111E+00    0.162E-01
RMM:   2    -0.115752673556E+04   -0.49718E-03   -0.78348E-03  1440   0.146E-01    0.153E-01
RMM:   3    -0.115752653426E+04    0.20130E-03   -0.37694E-04  1071   0.298E-02    0.136E-01
RMM:   4    -0.115752618943E+04    0.34483E-03   -0.25503E-03  1440   0.588E-02    0.429E-02
RMM:   5    -0.115752612584E+04    0.63590E-04   -0.40821E-05   880   0.109E-02
   6 F= -.11645940E+04 E0= -.11645894E+04  d E =-.678998E-03  mag=    -0.8640
       N       E                     dE             d eps       ncg     rms          rms(c)
DAV:   1    -0.115752632022E+04   -0.13079E-03   -0.72537E-02  1584   0.383E-01    0.529E-02
RMM:   2    -0.115752636338E+04   -0.43160E-04   -0.80770E-04  1259   0.469E-02
   7 F= -.11645943E+04 E0= -.11645897E+04  d E =-.960878E-03  mag=    -0.8641
