       N       E                     dE             d eps       ncg     rms          rms(c)
DAV:   1     0.467816133381E+04    0.46782E+04   -0.17432E+05  1908   0.908E+02
DAV:   2    -0.116441590440E+03   -0.47946E+04   -0.43748E+04  2520   0.207E+02
DAV:   3    -0.119925943797E+04   -0.10828E+04   -0.10781E+04  2088   0.107E+02
DAV:   4    -0.124358668038E+04   -0.44327E+02   -0.44119E+02  2016   0.293E+01
DAV:   5    -0.124486765765E+04   -0.12810E+01   -0.12787E+01  2376   0.459E+00    0.640E+01
RMM:   6    -0.122994725723E+04    0.14920E+02   -0.89666E+00  1617   0.337E+00    0.520E+01
RMM:   7    -0.118832670931E+04    0.41621E+02   -0.85491E+01  1622   0.103E+01    0.292E+01
RMM:   8    -0.118204797195E+04    0.62787E+01   -0.85177E+00  1630   0.381E+00    0.231E+01
RMM:   9    -0.117752511934E+04    0.45229E+01   -0.40770E+01  1592   0.732E+00    0.107E+01
RMM:  10    -0.117732423339E+04    0.20089E+00   -0.18169E+00  1665   0.229E+00    0.728E+00
RMM:  11    -0.117687571565E+04    0.44852E+00   -0.25121E+00  1627   0.165E+00    0.548E+00
RMM:  12    -0.117635143596E+04    0.52428E+00   -0.63829E-01  1634   0.946E-01    0.184E+00
RMM:  13    -0.117632370864E+04    0.27727E-01   -0.14773E-01  1700   0.489E-01    0.558E-01
RMM:  14    -0.117632680346E+04   -0.30948E-02   -0.21541E-02  1847   0.179E-01    0.378E-01
RMM:  15    -0.117632627259E+04    0.53087E-03   -0.32386E-03  1722   0.696E-02    0.291E-01
RMM:  16    -0.117632704960E+04   -0.77701E-03   -0.26675E-03  1596   0.649E-02    0.195E-01
RMM:  17    -0.117632753339E+04   -0.48379E-03   -0.92219E-04  1412   0.394E-02    0.143E-01
RMM:  18    -0.117632788769E+04   -0.35430E-03   -0.47288E-04  1285   0.293E-02    0.977E-02
RMM:  19    -0.117632818320E+04   -0.29551E-03   -0.46005E-04  1298   0.289E-02    0.646E-02
RMM:  20    -0.117632830451E+04   -0.12130E-03   -0.88267E-04  1483   0.382E-02    0.293E-02
RMM:  21    -0.117632850217E+04   -0.19766E-03   -0.19921E-04  1112   0.225E-02    0.153E-02
RMM:  22    -0.117632856632E+04   -0.64148E-04   -0.93137E-05  1036   0.160E-02
   1 F= -.11834014E+04 E0= -.11833953E+04  d E =-.118340E+04  mag=    -0.8121
       N       E                     dE             d eps       ncg     rms          rms(c)
DAV:   1    -0.117630919535E+04    0.19307E-01   -0.28968E+00  1692   0.206E+00    0.700E-01
RMM:   2    -0.117632609520E+04   -0.16900E-01   -0.20012E-01  1718   0.351E-01    0.778E-01
RMM:   3    -0.117632578551E+04    0.30968E-03   -0.10066E-02  1622   0.965E-02    0.879E-01
RMM:   4    -0.117632437607E+04    0.14094E-02   -0.48586E-03  1452   0.474E-02    0.868E-01
RMM:   5    -0.117632419255E+04    0.18352E-03   -0.15702E-03  1313   0.357E-02    0.859E-01
RMM:   6    -0.117632389276E+04    0.29979E-03   -0.13883E-03  1412   0.397E-02    0.784E-01
RMM:   7    -0.117632354481E+04    0.34795E-03   -0.38862E-04  1094   0.205E-02    0.792E-01
RMM:   8    -0.117632351508E+04    0.29734E-04   -0.43871E-05  1034   0.963E-03
   2 F= -.11833977E+04 E0= -.11833919E+04  d E =0.368110E-02  mag=    -0.8353
       N       E                     dE             d eps       ncg     rms          rms(c)
DAV:   1    -0.117632755782E+04   -0.40130E-02   -0.97721E-01  1728   0.122E+00    0.663E-01
RMM:   2    -0.117633210184E+04   -0.45440E-02   -0.66326E-02  1665   0.207E-01    0.419E-01
RMM:   3    -0.117633107763E+04    0.10242E-02   -0.66511E-03  1369   0.661E-02    0.219E-01
RMM:   4    -0.117633102670E+04    0.50938E-04   -0.10490E-03  1168   0.257E-02    0.179E-01
RMM:   5    -0.117633098525E+04    0.41444E-04   -0.33195E-04  1094   0.217E-02
   3 F= -.11834044E+04 E0= -.11833986E+04  d E =-.299835E-02  mag=    -0.8293
       N       E                     dE             d eps       ncg     rms          rms(c)
DAV:   1    -0.117632772924E+04    0.32975E-02   -0.10715E+00  1800   0.132E+00    0.312E-01
RMM:   2    -0.117633155213E+04   -0.38229E-02   -0.45480E-02  1672   0.208E-01    0.348E-01
RMM:   3    -0.117633135944E+04    0.19269E-03   -0.23472E-03  1333   0.597E-02    0.406E-01
RMM:   4    -0.117633102342E+04    0.33602E-03   -0.48366E-04  1137   0.234E-02    0.400E-01
RMM:   5    -0.117633038530E+04    0.63812E-03   -0.26193E-03  1593   0.527E-02    0.362E-01
RMM:   6    -0.117633029970E+04    0.85603E-04   -0.13579E-04  1078   0.193E-02
   4 F= -.11834044E+04 E0= -.11833987E+04  d E =-.498712E-04  mag=    -0.8322
       N       E                     dE             d eps       ncg     rms          rms(c)
DAV:   1    -0.117633146463E+04   -0.10793E-02   -0.26692E-01  1800   0.669E-01    0.337E-01
RMM:   2    -0.117633240158E+04   -0.93695E-03   -0.11521E-02  1666   0.104E-01    0.234E-01
RMM:   3    -0.117633221790E+04    0.18368E-03   -0.78992E-04  1123   0.350E-02    0.121E-01
RMM:   4    -0.117633216083E+04    0.57071E-04   -0.34571E-04  1118   0.217E-02
   5 F= -.11834059E+04 E0= -.11834002E+04  d E =-.154794E-02  mag=    -0.8312
       N       E                     dE             d eps       ncg     rms          rms(c)
DAV:   1    -0.117633167732E+04    0.54058E-03   -0.27913E-01  1872   0.859E-01    0.161E-01
RMM:   2    -0.117633327217E+04   -0.15948E-02   -0.18216E-02  1663   0.131E-01    0.131E-01
RMM:   3    -0.117633314887E+04    0.12329E-03   -0.99424E-04  1136   0.374E-02    0.111E-01
RMM:   4    -0.117633310153E+04    0.47338E-04   -0.23483E-04  1076   0.175E-02
   6 F= -.11834072E+04 E0= -.11834015E+04  d E =-.127566E-02  mag=    -0.8279
       N       E                     dE             d eps       ncg     rms          rms(c)
DAV:   1    -0.117633269734E+04    0.45153E-03   -0.31607E-02  1872   0.297E-01    0.789E-02
RMM:   2    -0.117633288179E+04   -0.18446E-03   -0.23055E-03  1256   0.413E-02    0.683E-02
RMM:   3    -0.117633288689E+04   -0.50955E-05   -0.14897E-04  1031   0.159E-02
   7 F= -.11834071E+04 E0= -.11834014E+04  d E =-.117927E-02  mag=    -0.8275
       N       E                     dE             d eps       ncg     rms          rms(c)
DAV:   1    -0.117633226010E+04    0.62169E-03   -0.26691E-01  1800   0.768E-01    0.159E-01
RMM:   2    -0.117633300662E+04   -0.74652E-03   -0.10341E-02  1624   0.121E-01    0.172E-01
RMM:   3    -0.117633290276E+04    0.10386E-03   -0.47604E-04  1113   0.321E-02    0.171E-01
RMM:   4    -0.117633279586E+04    0.10691E-03   -0.10507E-04  1037   0.150E-02    0.150E-01
RMM:   5    -0.117633269540E+04    0.10046E-03   -0.14686E-03  1547   0.386E-02    0.620E-02
RMM:   6    -0.117633268746E+04    0.79392E-05   -0.58764E-05  1026   0.146E-02
   8 F= -.11834071E+04 E0= -.11834014E+04  d E =-.131224E-04  mag=    -0.8291
       N       E                     dE             d eps       ncg     rms          rms(c)
DAV:   1    -0.117633365841E+04   -0.96301E-03   -0.71228E-02  1800   0.397E-01    0.826E-02
RMM:   2    -0.117633380973E+04   -0.15132E-03   -0.25147E-03  1600   0.606E-02    0.825E-02
RMM:   3    -0.117633376321E+04    0.46516E-04   -0.12201E-04  1021   0.176E-02
   9 F= -.11834081E+04 E0= -.11834024E+04  d E =-.977888E-03  mag=    -0.8286
