       N       E                     dE             d eps       ncg     rms          rms(c)
DAV:   1     0.497130927795E+04    0.49713E+04   -0.17195E+05  1836   0.916E+02
DAV:   2    -0.205267109927E+02   -0.49918E+04   -0.45599E+04  2520   0.209E+02
DAV:   3    -0.118337309700E+04   -0.11628E+04   -0.11550E+04  2124   0.111E+02
DAV:   4    -0.123095622766E+04   -0.47583E+02   -0.47288E+02  1980   0.295E+01
DAV:   5    -0.123219001543E+04   -0.12338E+01   -0.12310E+01  2412   0.441E+00    0.677E+01
RMM:   6    -0.121893508062E+04    0.13255E+02   -0.42296E+01  1584   0.600E+00    0.596E+01
RMM:   7    -0.120451947717E+04    0.14416E+02   -0.43972E+00  1584   0.242E+00    0.509E+01
RMM:   8    -0.118716935851E+04    0.17350E+02   -0.52462E+01  1584   0.807E+00    0.385E+01
RMM:   9    -0.117222679726E+04    0.14943E+02   -0.29142E+00  1593   0.202E+00    0.301E+01
RMM:  10    -0.116736589657E+04    0.48609E+01   -0.36403E+00  1584   0.196E+00    0.228E+01
RMM:  11    -0.116219773237E+04    0.51682E+01   -0.78276E+00  1584   0.313E+00    0.166E+01
RMM:  12    -0.116247810886E+04   -0.28038E+00   -0.48973E+00  1584   0.247E+00    0.117E+01
RMM:  13    -0.116303814167E+04   -0.56003E+00   -0.21168E+00  1585   0.168E+00    0.732E+00
RMM:  14    -0.116239193157E+04    0.64621E+00   -0.31773E-01  1610   0.562E-01    0.551E+00
RMM:  15    -0.116201832784E+04    0.37360E+00   -0.10028E+00  1584   0.982E-01    0.860E+00
RMM:  16    -0.116194173180E+04    0.76596E-01   -0.93493E-02  1611   0.298E-01    0.740E+00
RMM:  17    -0.116178510269E+04    0.15663E+00   -0.26986E-01  1584   0.429E-01    0.391E+00
RMM:  18    -0.116177592272E+04    0.91800E-02   -0.43916E-02  1586   0.204E-01    0.352E+00
RMM:  19    -0.116173127747E+04    0.44645E-01   -0.55061E-02  1585   0.230E-01    0.168E+00
RMM:  20    -0.116178739438E+04   -0.56117E-01   -0.13345E-02  1612   0.109E-01    0.427E+00
RMM:  21    -0.116178583142E+04    0.15630E-02   -0.38935E-03  1337   0.657E-02    0.408E+00
RMM:  22    -0.116181078448E+04   -0.24953E-01   -0.24029E-02  1584   0.140E-01    0.332E+00
RMM:  23    -0.116179440876E+04    0.16376E-01   -0.84558E-03  1575   0.707E-02    0.268E+00
RMM:  24    -0.116178332887E+04    0.11080E-01   -0.22112E-03  1238   0.325E-02    0.215E+00
RMM:  25    -0.116178110901E+04    0.22199E-02   -0.27863E-03  1500   0.479E-02    0.138E+00
RMM:  26    -0.116178239752E+04   -0.12885E-02   -0.34313E-03  1373   0.488E-02    0.338E-01
RMM:  27    -0.116178581807E+04   -0.34206E-02   -0.72269E-04  1178   0.274E-02    0.343E-01
RMM:  28    -0.116178606706E+04   -0.24899E-03   -0.55178E-04  1193   0.246E-02    0.239E-01
RMM:  29    -0.116178675161E+04   -0.68455E-03   -0.81547E-04  1223   0.277E-02    0.672E-01
RMM:  30    -0.116178565443E+04    0.10972E-02   -0.17472E-03  1315   0.376E-02    0.489E-01
RMM:  31    -0.116178568891E+04   -0.34475E-04   -0.17130E-04  1049   0.184E-02
   1 F= -.11690753E+04 E0= -.11690692E+04  d E =-.116908E+04  mag=    -1.1535
       N       E                     dE             d eps       ncg     rms          rms(c)
DAV:   1    -0.116177835435E+04    0.73001E-02   -0.34813E+00  1692   0.201E+00    0.128E+00
RMM:   2    -0.116178524302E+04   -0.68887E-02   -0.69576E-02  1584   0.283E-01    0.166E+00
RMM:   3    -0.116178211600E+04    0.31270E-02   -0.38609E-03  1485   0.587E-02    0.103E+00
RMM:   4    -0.116178368335E+04   -0.15674E-02   -0.19423E-03  1358   0.439E-02    0.824E-01
RMM:   5    -0.116178300838E+04    0.67497E-03   -0.29883E-03  1574   0.574E-02    0.665E-01
RMM:   6    -0.116178329067E+04   -0.28229E-03   -0.14182E-03  1296   0.357E-02    0.110E-01
RMM:   7    -0.116178382208E+04   -0.53142E-03   -0.11184E-04  1037   0.140E-02    0.137E-01
RMM:   8    -0.116178372142E+04    0.10066E-03   -0.59116E-05  1015   0.841E-03    0.535E-02
RMM:   9    -0.116178378551E+04   -0.64090E-04   -0.70267E-05  1019   0.987E-03
   2 F= -.11690758E+04 E0= -.11690698E+04  d E =-.471345E-03  mag=    -1.1608
       N       E                     dE             d eps       ncg     rms          rms(c)
DAV:   1    -0.116178736613E+04   -0.36447E-02   -0.75327E-01  1620   0.940E-01    0.551E-01
RMM:   2    -0.116178851225E+04   -0.11461E-02   -0.14764E-02  1584   0.130E-01    0.663E-01
RMM:   3    -0.116178812068E+04    0.39157E-03   -0.76056E-04  1151   0.258E-02    0.481E-01
RMM:   4    -0.116178861189E+04   -0.49121E-03   -0.30518E-04  1087   0.195E-02    0.476E-01
RMM:   5    -0.116178817355E+04    0.43834E-03   -0.87101E-04  1271   0.309E-02    0.240E-01
RMM:   6    -0.116178848924E+04   -0.31569E-03   -0.23300E-04  1065   0.173E-02    0.425E-02
RMM:   7    -0.116178857875E+04   -0.89516E-04   -0.23428E-05   971   0.697E-03
   3 F= -.11690795E+04 E0= -.11690733E+04  d E =-.415700E-02  mag=    -1.1660
       N       E                     dE             d eps       ncg     rms          rms(c)
DAV:   1    -0.116178776116E+04    0.72808E-03   -0.11090E+00  1656   0.145E+00    0.457E-01
RMM:   2    -0.116178976016E+04   -0.19990E-02   -0.27075E-02  1584   0.200E-01    0.502E-01
RMM:   3    -0.116178954958E+04    0.21058E-03   -0.12277E-03  1365   0.416E-02    0.353E-01
RMM:   4    -0.116178942625E+04    0.12333E-03   -0.43535E-04  1233   0.264E-02    0.331E-01
RMM:   5    -0.116178877151E+04    0.65474E-03   -0.22191E-03  1584   0.530E-02    0.193E-01
RMM:   6    -0.116178896345E+04   -0.19194E-03   -0.31314E-04  1168   0.213E-02    0.699E-02
RMM:   7    -0.116178902303E+04   -0.59577E-04   -0.62149E-05  1016   0.112E-02
   4 F= -.11690799E+04 E0= -.11690740E+04  d E =-.365216E-03  mag=    -1.1551
       N       E                     dE             d eps       ncg     rms          rms(c)
DAV:   1    -0.116178983888E+04   -0.87543E-03   -0.24886E-01  1728   0.685E-01    0.215E-01
RMM:   2    -0.116179010060E+04   -0.26171E-03   -0.50264E-03  1584   0.932E-02    0.237E-01
RMM:   3    -0.116179003614E+04    0.64457E-04   -0.24913E-04  1091   0.198E-02
   5 F= -.11690809E+04 E0= -.11690750E+04  d E =-.141400E-02  mag=    -1.1563
       N       E                     dE             d eps       ncg     rms          rms(c)
DAV:   1    -0.116179271361E+04   -0.26130E-02   -0.91516E-01  1728   0.118E+00    0.816E-01
RMM:   2    -0.116179530436E+04   -0.25908E-02   -0.19118E-02  1584   0.186E-01    0.178E+00
RMM:   3    -0.116178813230E+04    0.71721E-02   -0.18546E-03  1379   0.500E-02    0.483E-01
RMM:   4    -0.116179020320E+04   -0.20709E-02   -0.12352E-03  1584   0.430E-02    0.447E-01
RMM:   5    -0.116178945211E+04    0.75109E-03   -0.41202E-03  1584   0.710E-02    0.185E-01
RMM:   6    -0.116178973890E+04   -0.28680E-03   -0.50418E-04  1315   0.272E-02    0.991E-02
RMM:   7    -0.116178979337E+04   -0.54462E-04   -0.75259E-05  1018   0.124E-02
   6 F= -.11690789E+04 E0= -.11690731E+04  d E =0.201399E-02  mag=    -1.1504
       N       E                     dE             d eps       ncg     rms          rms(c)
DAV:   1    -0.116179218324E+04   -0.24443E-02   -0.39741E-01  1728   0.778E-01    0.594E-01
RMM:   2    -0.116179374290E+04   -0.15597E-02   -0.90150E-03  1584   0.125E-01    0.117E+00
RMM:   3    -0.116179003206E+04    0.37108E-02   -0.93109E-04  1234   0.362E-02    0.328E-01
RMM:   4    -0.116179101557E+04   -0.98351E-03   -0.62658E-04  1224   0.281E-02    0.161E-01
RMM:   5    -0.116179122732E+04   -0.21174E-03   -0.10710E-03  1578   0.383E-02    0.178E-01
RMM:   6    -0.116179113238E+04    0.94937E-04   -0.16324E-04  1046   0.147E-02
   7 F= -.11690814E+04 E0= -.11690753E+04  d E =-.490031E-03  mag=    -1.1560
