       N       E                     dE             d eps       ncg     rms          rms(c)
DAV:   1     0.494283563318E+04    0.49428E+04   -0.17139E+05  1836   0.913E+02
DAV:   2    -0.455141662047E+02   -0.49883E+04   -0.45505E+04  2520   0.208E+02
DAV:   3    -0.119558160660E+04   -0.11501E+04   -0.11448E+04  2160   0.111E+02
DAV:   4    -0.124083046846E+04   -0.45249E+02   -0.45029E+02  2016   0.288E+01
DAV:   5    -0.124199688035E+04   -0.11664E+01   -0.11641E+01  2376   0.436E+00    0.679E+01
RMM:   6    -0.122470831595E+04    0.17289E+02   -0.32795E+01  1585   0.533E+00    0.569E+01
RMM:   7    -0.120972360306E+04    0.14985E+02   -0.69635E+00  1584   0.301E+00    0.442E+01
RMM:   8    -0.118470373025E+04    0.25020E+02   -0.30164E+01  1584   0.627E+00    0.284E+01
RMM:   9    -0.117342971742E+04    0.11274E+02   -0.18313E+01  1584   0.490E+00    0.202E+01
RMM:  10    -0.117287526688E+04    0.55445E+00   -0.18313E+01  1584   0.484E+00    0.102E+01
RMM:  11    -0.117319320612E+04   -0.31794E+00   -0.13362E+00  1611   0.144E+00    0.697E+00
RMM:  12    -0.117265601814E+04    0.53719E+00   -0.66500E-01  1584   0.834E-01    0.480E+00
RMM:  13    -0.117233852779E+04    0.31749E+00   -0.74638E-01  1584   0.968E-01    0.126E+00
RMM:  14    -0.117231906138E+04    0.19466E-01   -0.13554E-01  1584   0.421E-01    0.719E-01
RMM:  15    -0.117231868683E+04    0.37455E-03   -0.20045E-02  1616   0.164E-01    0.344E-01
RMM:  16    -0.117231832681E+04    0.36002E-03   -0.75751E-03  1584   0.991E-02    0.226E-01
RMM:  17    -0.117231804809E+04    0.27872E-03   -0.17028E-03  1545   0.472E-02    0.127E-01
RMM:  18    -0.117231798592E+04    0.62171E-04   -0.95706E-04  1510   0.340E-02
   1 F= -.11796563E+04 E0= -.11796562E+04  d E =-.117966E+04  mag=    -0.9897
       N       E                     dE             d eps       ncg     rms          rms(c)
DAV:   1    -0.117231598342E+04    0.20647E-02   -0.84420E-01  1620   0.132E+00    0.394E-01
RMM:   2    -0.117231760716E+04   -0.16237E-02   -0.19762E-02  1584   0.183E-01    0.348E-01
RMM:   3    -0.117231731432E+04    0.29284E-03   -0.13009E-03  1500   0.420E-02    0.284E-01
RMM:   4    -0.117231691766E+04    0.39666E-03   -0.24695E-03  1584   0.569E-02    0.865E-02
RMM:   5    -0.117231693438E+04   -0.16716E-04   -0.11203E-04  1047   0.144E-02
   2 F= -.11796560E+04 E0= -.11796559E+04  d E =0.309423E-03  mag=    -0.9988
       N       E                     dE             d eps       ncg     rms          rms(c)
DAV:   1    -0.117231898256E+04   -0.20649E-02   -0.25795E-01  1692   0.729E-01    0.214E-01
RMM:   2    -0.117231935703E+04   -0.37448E-03   -0.54493E-03  1584   0.983E-02    0.188E-01
RMM:   3    -0.117231919303E+04    0.16400E-03   -0.34885E-04  1155   0.231E-02    0.149E-01
RMM:   4    -0.117231903552E+04    0.15751E-03   -0.11024E-03  1569   0.378E-02    0.454E-02
RMM:   5    -0.117231903502E+04    0.50108E-06   -0.32667E-05  1010   0.848E-03
   3 F= -.11796576E+04 E0= -.11796576E+04  d E =-.137993E-02  mag=    -0.9995
       N       E                     dE             d eps       ncg     rms          rms(c)
DAV:   1    -0.117232022312E+04   -0.11876E-02   -0.48163E-01  1656   0.997E-01    0.271E-01
RMM:   2    -0.117232064127E+04   -0.41815E-03   -0.94245E-03  1584   0.129E-01    0.231E-01
RMM:   3    -0.117232015324E+04    0.48804E-03   -0.57992E-04  1351   0.307E-02    0.183E-01
RMM:   4    -0.117231974265E+04    0.41059E-03   -0.16790E-03  1584   0.452E-02    0.760E-02
RMM:   5    -0.117231974340E+04   -0.74926E-06   -0.19488E-04  1094   0.167E-02
   4 F= -.11796585E+04 E0= -.11796585E+04  d E =-.847769E-03  mag=    -0.9997
       N       E                     dE             d eps       ncg     rms          rms(c)
DAV:   1    -0.117232009343E+04   -0.35077E-03   -0.46907E-02  1728   0.311E-01    0.822E-02
RMM:   2    -0.117232010004E+04   -0.66128E-05   -0.85953E-04  1381   0.393E-02
   5 F= -.11796588E+04 E0= -.11796588E+04  d E =-.115976E-02  mag=    -0.9997
       N       E                     dE             d eps       ncg     rms          rms(c)
DAV:   1    -0.117232050477E+04   -0.41135E-03   -0.30816E-01  1728   0.863E-01    0.246E-01
RMM:   2    -0.117232054326E+04   -0.38490E-04   -0.69307E-03  1584   0.121E-01    0.217E-01
RMM:   3    -0.117231973870E+04    0.80457E-03   -0.69979E-04  1569   0.327E-02    0.164E-01
RMM:   4    -0.117231904526E+04    0.69344E-03   -0.19723E-03  1584   0.490E-02    0.718E-02
RMM:   5    -0.117231900953E+04    0.35726E-04   -0.27917E-04  1177   0.201E-02
   6 F= -.11796578E+04 E0= -.11796578E+04  d E =0.969723E-03  mag=    -0.9997
       N       E                     dE             d eps       ncg     rms          rms(c)
DAV:   1    -0.117232079554E+04   -0.17503E-02   -0.13521E-01  1728   0.571E-01    0.134E-01
RMM:   2    -0.117232084794E+04   -0.52397E-04   -0.29784E-03  1584   0.794E-02    0.117E-01
RMM:   3    -0.117232060203E+04    0.24592E-03   -0.19549E-04  1067   0.189E-02    0.914E-02
RMM:   4    -0.117232035233E+04    0.24970E-03   -0.85570E-04  1570   0.327E-02    0.377E-02
RMM:   5    -0.117232034592E+04    0.64097E-05   -0.69115E-05   999   0.111E-02
   7 F= -.11796591E+04 E0= -.11796591E+04  d E =-.285401E-03  mag=    -0.9997
