       N       E                     dE             d eps       ncg     rms          rms(c)
DAV:   1     0.500438103733E+04    0.50044E+04   -0.17107E+05  1800   0.915E+02
DAV:   2    -0.293241794886E+02   -0.50337E+04   -0.45984E+04  2520   0.212E+02
DAV:   3    -0.118216708440E+04   -0.11528E+04   -0.11479E+04  2124   0.112E+02
DAV:   4    -0.122917637437E+04   -0.47009E+02   -0.46807E+02  2016   0.298E+01
DAV:   5    -0.123038397831E+04   -0.12076E+01   -0.12044E+01  2304   0.448E+00    0.610E+01
RMM:   6    -0.121775437177E+04    0.12630E+02   -0.84560E+00  1584   0.366E+00    0.492E+01
RMM:   7    -0.118187079707E+04    0.35884E+02   -0.52737E+01  1584   0.846E+00    0.322E+01
RMM:   8    -0.117470038780E+04    0.71704E+01   -0.80462E+00  1590   0.340E+00    0.251E+01
RMM:   9    -0.116740078837E+04    0.72996E+01   -0.30438E+01  1584   0.639E+00    0.130E+01
RMM:  10    -0.116878190229E+04   -0.13811E+01   -0.65517E+00  1587   0.323E+00    0.866E+00
RMM:  11    -0.116726614288E+04    0.15158E+01   -0.40949E+00  1584   0.200E+00    0.427E+00
RMM:  12    -0.116714386835E+04    0.12227E+00   -0.24149E-01  1602   0.530E-01    0.237E+00
RMM:  13    -0.116704531791E+04    0.98550E-01   -0.45891E-01  1584   0.787E-01    0.674E-01
RMM:  14    -0.116704424064E+04    0.10773E-02   -0.38163E-02  1602   0.212E-01    0.512E-01
RMM:  15    -0.116704288311E+04    0.13575E-02   -0.75342E-03  1585   0.104E-01    0.460E-01
RMM:  16    -0.116704115727E+04    0.17258E-02   -0.63137E-03  1584   0.774E-02    0.223E-01
RMM:  17    -0.116704138728E+04   -0.23001E-03   -0.80010E-04  1345   0.411E-02    0.183E-01
RMM:  18    -0.116704116380E+04    0.22347E-03   -0.10480E-03  1241   0.272E-02    0.857E-02
RMM:  19    -0.116704118645E+04   -0.22645E-04   -0.23955E-04  1084   0.174E-02
   1 F= -.11741294E+04 E0= -.11741294E+04  d E =-.117413E+04  mag=    -0.0008
       N       E                     dE             d eps       ncg     rms          rms(c)
DAV:   1    -0.116704025427E+04    0.90954E-03   -0.22460E-01  1692   0.785E-01    0.113E-01
RMM:   2    -0.116704082809E+04   -0.57383E-03   -0.72417E-03  1584   0.119E-01    0.112E-01
RMM:   3    -0.116704079243E+04    0.35665E-04   -0.40385E-04  1233   0.309E-02
   2 F= -.11741289E+04 E0= -.11741289E+04  d E =0.414168E-03  mag=    -0.0000
       N       E                     dE             d eps       ncg     rms          rms(c)
DAV:   1    -0.116704127761E+04   -0.44952E-03   -0.78647E-02  1656   0.462E-01    0.324E-02
RMM:   2    -0.116704154843E+04   -0.27082E-03   -0.24276E-03  1584   0.745E-02    0.248E-02
RMM:   3    -0.116704155193E+04   -0.34955E-05   -0.95479E-05  1019   0.167E-02
   3 F= -.11741297E+04 E0= -.11741297E+04  d E =-.356067E-03  mag=    -0.0000
