       N       E                     dE             d eps       ncg     rms          rms(c)
DAV:   1     0.492278418699E+04    0.49228E+04   -0.17757E+05  1824   0.950E+02
DAV:   2    -0.372194456636E+02   -0.49600E+04   -0.45418E+04  2464   0.217E+02
DAV:   3    -0.119513032303E+04   -0.11579E+04   -0.11511E+04  2080   0.115E+02
DAV:   4    -0.124255754104E+04   -0.47427E+02   -0.47124E+02  1984   0.304E+01
DAV:   5    -0.124379221684E+04   -0.12347E+01   -0.12319E+01  2304   0.466E+00    0.860E+01
RMM:   6    -0.122944467154E+04    0.14348E+02   -0.10636E+02  1637   0.156E+01    0.984E+01
RMM:   7    -0.121359252959E+04    0.15852E+02   -0.17470E+01  1543   0.646E+00    0.622E+01
RMM:   8    -0.120125392741E+04    0.12339E+02   -0.11949E+01  1556   0.501E+00    0.442E+01
RMM:   9    -0.118860342686E+04    0.12651E+02   -0.86734E+00  1561   0.385E+00    0.343E+01
RMM:  10    -0.117528515112E+04    0.13318E+02   -0.13479E+01  1630   0.490E+00    0.261E+01
RMM:  11    -0.116637302200E+04    0.89121E+01   -0.16128E+01  1632   0.534E+00    0.176E+01
RMM:  12    -0.116683837286E+04   -0.46535E+00   -0.98582E+00  1549   0.429E+00    0.135E+01
RMM:  13    -0.116665362172E+04    0.18475E+00   -0.17808E+00  1610   0.234E+00    0.108E+01
RMM:  14    -0.116690992704E+04   -0.25631E+00   -0.37968E-01  1680   0.106E+00    0.107E+01
RMM:  15    -0.116686304522E+04    0.46882E-01   -0.20954E-01  1548   0.579E-01    0.800E+00
RMM:  16    -0.116638759589E+04    0.47545E+00   -0.13624E+00  1691   0.122E+00    0.547E+00
RMM:  17    -0.116660033251E+04   -0.21274E+00   -0.10182E-01  1550   0.490E-01    0.331E+00
RMM:  18    -0.116649632675E+04    0.10401E+00   -0.41861E-01  1738   0.838E-01    0.187E+00
RMM:  19    -0.116651478037E+04   -0.18454E-01   -0.26963E-02  1549   0.315E-01    0.110E+00
RMM:  20    -0.116651743383E+04   -0.26535E-02   -0.10211E-02  1582   0.155E-01    0.754E-01
RMM:  21    -0.116652216438E+04   -0.47306E-02   -0.25595E-03  1601   0.925E-02    0.554E-01
RMM:  22    -0.116652371088E+04   -0.15465E-02   -0.38596E-03  1570   0.720E-02    0.311E-01
RMM:  23    -0.116652376216E+04   -0.51273E-04   -0.76660E-04  1652   0.399E-02    0.261E-01
RMM:  24    -0.116652385827E+04   -0.96114E-04   -0.27926E-04  1593   0.240E-02    0.176E-01
RMM:  25    -0.116652403343E+04   -0.17516E-03   -0.11849E-04  1585   0.167E-02    0.115E-01
RMM:  26    -0.116652414116E+04   -0.10773E-03   -0.90083E-05  1577   0.133E-02    0.774E-02
RMM:  27    -0.116652414250E+04   -0.13447E-05   -0.18761E-05  1547   0.688E-03    0.571E-02
RMM:  28    -0.116652413317E+04    0.93353E-05   -0.10972E-05  1438   0.497E-03    0.437E-02
RMM:  29    -0.116652413093E+04    0.22363E-05   -0.16017E-05  1551   0.472E-03    0.301E-02
RMM:  30    -0.116652413133E+04   -0.40140E-06   -0.66025E-06  1244   0.350E-03
   1 F= -.11735886E+04 E0= -.11735886E+04  d E =-.117359E+04  mag=     2.9994
       N       E                     dE             d eps       ncg     rms          rms(c)
DAV:   1    -0.116652112805E+04    0.30029E-02   -0.22388E-01  1728   0.135E+00    0.162E-01
RMM:   2    -0.116652327940E+04   -0.21514E-02   -0.22441E-02  1619   0.226E-01    0.150E-01
RMM:   3    -0.116652352047E+04   -0.24107E-03   -0.28990E-03  1761   0.794E-02    0.114E-01
RMM:   4    -0.116652351247E+04    0.80005E-05   -0.51069E-04  1831   0.298E-02    0.105E-01
RMM:   5    -0.116652344544E+04    0.67027E-04   -0.28540E-04  1569   0.215E-02    0.669E-02
RMM:   6    -0.116652344663E+04   -0.11872E-05   -0.12903E-04  1621   0.153E-02    0.476E-02
RMM:   7    -0.116652344200E+04    0.46299E-05   -0.18963E-05  1524   0.785E-03    0.335E-02
RMM:   8    -0.116652344478E+04   -0.27772E-05   -0.19427E-05  1540   0.634E-03    0.178E-02
RMM:   9    -0.116652344401E+04    0.76813E-06   -0.48668E-06  1342   0.372E-03
   2 F= -.11735882E+04 E0= -.11735882E+04  d E =0.356821E-03  mag=     2.9999
       N       E                     dE             d eps       ncg     rms          rms(c)
DAV:   1    -0.116652358131E+04   -0.13653E-03   -0.78016E-02  1728   0.799E-01    0.943E-02
RMM:   2    -0.116652427378E+04   -0.69247E-03   -0.73297E-03  1596   0.130E-01    0.831E-02
RMM:   3    -0.116652434220E+04   -0.68422E-04   -0.85466E-04  1686   0.443E-02    0.629E-02
RMM:   4    -0.116652434026E+04    0.19454E-05   -0.15527E-04  1782   0.167E-02    0.562E-02
RMM:   5    -0.116652431828E+04    0.21973E-04   -0.71871E-05  1567   0.112E-02    0.367E-02
RMM:   6    -0.116652431497E+04    0.33098E-05   -0.44568E-05  1572   0.909E-03    0.237E-02
RMM:   7    -0.116652431479E+04    0.18819E-06   -0.65489E-06  1516   0.489E-03
   3 F= -.11735889E+04 E0= -.11735889E+04  d E =-.318580E-03  mag=     2.9999
