       N       E                     dE             d eps       ncg     rms          rms(c)
DAV:   1     0.464516849452E+04    0.46452E+04   -0.17329E+05  1908   0.903E+02
DAV:   2    -0.119043634403E+03   -0.47642E+04   -0.43389E+04  2556   0.203E+02
DAV:   3    -0.119347362883E+04   -0.10744E+04   -0.10702E+04  2160   0.105E+02
DAV:   4    -0.123486627187E+04   -0.41393E+02   -0.41186E+02  2052   0.272E+01
DAV:   5    -0.123593001378E+04   -0.10637E+01   -0.10618E+01  2340   0.402E+00    0.802E+01
RMM:   6    -0.122357177018E+04    0.12358E+02   -0.69680E+00  1584   0.302E+00    0.715E+01
RMM:   7    -0.117985845771E+04    0.43713E+02   -0.73365E+01  1584   0.965E+00    0.469E+01
RMM:   8    -0.117297626441E+04    0.68822E+01   -0.21849E+01  1584   0.533E+00    0.317E+01
RMM:   9    -0.117514469352E+04   -0.21684E+01   -0.29539E+01  1584   0.609E+00    0.120E+01
RMM:  10    -0.117282825964E+04    0.23164E+01   -0.21892E+00  1584   0.175E+00    0.742E+00
RMM:  11    -0.117237077622E+04    0.45748E+00   -0.18283E+00  1584   0.144E+00    0.312E+00
RMM:  12    -0.117223686008E+04    0.13392E+00   -0.27955E-01  1584   0.554E-01    0.109E+00
RMM:  13    -0.117221659443E+04    0.20266E-01   -0.90141E-02  1585   0.332E-01    0.499E-01
RMM:  14    -0.117221890460E+04   -0.23102E-02   -0.17736E-02  1585   0.140E-01    0.502E-01
RMM:  15    -0.117221364504E+04    0.52596E-02   -0.12816E-02  1585   0.122E-01    0.434E-01
RMM:  16    -0.117221341384E+04    0.23120E-03   -0.24412E-03  1585   0.587E-02    0.226E-01
RMM:  17    -0.117221360622E+04   -0.19238E-03   -0.15890E-04  1086   0.174E-02    0.192E-01
RMM:  18    -0.117221349980E+04    0.10641E-03   -0.54624E-04  1513   0.265E-02    0.680E-02
RMM:  19    -0.117221357732E+04   -0.77512E-04   -0.55958E-05  1032   0.109E-02
   1 F= -.11795313E+04 E0= -.11795313E+04  d E =-.117953E+04  mag=     0.0001
       N       E                     dE             d eps       ncg     rms          rms(c)
DAV:   1    -0.117221204807E+04    0.14517E-02   -0.40146E-01  1620   0.102E+00    0.570E-01
RMM:   2    -0.117221310885E+04   -0.10608E-02   -0.12871E-02  1584   0.153E-01    0.517E-01
RMM:   3    -0.117221287430E+04    0.23455E-03   -0.83441E-04  1476   0.362E-02    0.414E-01
RMM:   4    -0.117221279728E+04    0.77017E-04   -0.22283E-03  1582   0.509E-02    0.948E-02
RMM:   5    -0.117221272236E+04    0.74922E-04   -0.56404E-05  1042   0.111E-02
   2 F= -.11795307E+04 E0= -.11795307E+04  d E =0.609755E-03  mag=     0.0000
       N       E                     dE             d eps       ncg     rms          rms(c)
DAV:   1    -0.117221407873E+04   -0.12814E-02   -0.15252E-01  1692   0.629E-01    0.353E-01
RMM:   2    -0.117221434100E+04   -0.26228E-03   -0.36559E-03  1584   0.854E-02    0.301E-01
RMM:   3    -0.117221419188E+04    0.14913E-03   -0.29043E-04  1150   0.228E-02    0.209E-01
RMM:   4    -0.117221418295E+04    0.89264E-05   -0.77849E-04  1543   0.315E-02
   3 F= -.11795320E+04 E0= -.11795320E+04  d E =-.696795E-03  mag=    -0.0000
