       N       E                     dE             d eps       ncg     rms          rms(c)
DAV:   1     0.494279770754E+04    0.49428E+04   -0.16920E+05  1800   0.905E+02
DAV:   2    -0.411735476736E+02   -0.49840E+04   -0.45454E+04  2556   0.209E+02
DAV:   3    -0.117231955135E+04   -0.11311E+04   -0.11263E+04  2160   0.110E+02
DAV:   4    -0.121740017064E+04   -0.45081E+02   -0.44885E+02  2052   0.288E+01
DAV:   5    -0.121855322716E+04   -0.11531E+01   -0.11511E+01  2340   0.424E+00    0.601E+01
RMM:   6    -0.120674798146E+04    0.11805E+02   -0.65558E+00  1584   0.297E+00    0.492E+01
RMM:   7    -0.116592599476E+04    0.40822E+02   -0.60300E+01  1584   0.889E+00    0.289E+01
RMM:   8    -0.115604094371E+04    0.98851E+01   -0.56438E+01  1584   0.847E+00    0.128E+01
RMM:   9    -0.115706195543E+04   -0.10210E+01   -0.48119E+00  1592   0.263E+00    0.969E+00
RMM:  10    -0.115596945086E+04    0.10925E+01   -0.31979E+00  1584   0.194E+00    0.375E+00
RMM:  11    -0.115593168793E+04    0.37763E-01   -0.12725E-01  1621   0.431E-01    0.231E+00
RMM:  12    -0.115584724141E+04    0.84447E-01   -0.10717E-01  1584   0.363E-01    0.141E+00
RMM:  13    -0.115580106053E+04    0.46181E-01   -0.20238E-01  1584   0.504E-01    0.400E-01
RMM:  14    -0.115579481751E+04    0.62430E-02   -0.22359E-02  1619   0.166E-01    0.258E-01
RMM:  15    -0.115579477523E+04    0.42280E-04   -0.23978E-03  1585   0.534E-02    0.184E-01
RMM:  16    -0.115579468002E+04    0.95212E-04   -0.14820E-03  1563   0.468E-02    0.107E-01
RMM:  17    -0.115579485004E+04   -0.17002E-03   -0.19548E-04  1106   0.171E-02    0.652E-02
RMM:  18    -0.115579487129E+04   -0.21252E-04   -0.96799E-05  1049   0.131E-02
   1 F= -.11628677E+04 E0= -.11628668E+04  d E =-.116287E+04  mag=    -0.9799
       N       E                     dE             d eps       ncg     rms          rms(c)
DAV:   1    -0.115579482860E+04    0.21438E-04   -0.37673E-01  1728   0.970E-01    0.190E-01
RMM:   2    -0.115579533635E+04   -0.50775E-03   -0.10374E-02  1584   0.141E-01    0.180E-01
RMM:   3    -0.115579492149E+04    0.41485E-03   -0.65565E-04  1403   0.329E-02    0.156E-01
RMM:   4    -0.115579406798E+04    0.85351E-03   -0.35177E-03  1584   0.645E-02    0.545E-02
RMM:   5    -0.115579404464E+04    0.23336E-04   -0.62881E-05  1039   0.123E-02
   2 F= -.11628671E+04 E0= -.11628660E+04  d E =0.691825E-03  mag=    -0.9782
       N       E                     dE             d eps       ncg     rms          rms(c)
DAV:   1    -0.115579574451E+04   -0.16765E-02   -0.12561E-01  1620   0.559E-01    0.101E-01
RMM:   2    -0.115579585158E+04   -0.10707E-03   -0.28607E-03  1584   0.776E-02    0.962E-02
RMM:   3    -0.115579570033E+04    0.15125E-03   -0.16234E-04  1090   0.176E-02    0.821E-02
RMM:   4    -0.115579542838E+04    0.27194E-03   -0.12168E-03  1583   0.381E-02    0.273E-02
RMM:   5    -0.115579542626E+04    0.21189E-05   -0.18694E-05  1003   0.707E-03
   3 F= -.11628684E+04 E0= -.11628674E+04  d E =-.611062E-03  mag=    -0.9793
