       N       E                     dE             d eps       ncg     rms          rms(c)
DAV:   1     0.486780995713E+04    0.48678E+04   -0.17385E+05  1824   0.944E+02
DAV:   2    -0.346079881524E+02   -0.49024E+04   -0.44751E+04  2400   0.217E+02
DAV:   3    -0.120055062419E+04   -0.11659E+04   -0.11567E+04  1984   0.115E+02
DAV:   4    -0.125200961616E+04   -0.51459E+02   -0.51114E+02  1920   0.323E+01
DAV:   5    -0.125345954830E+04   -0.14499E+01   -0.14439E+01  2240   0.520E+00    0.776E+01
RMM:   6    -0.125383448678E+04   -0.37494E+00   -0.10589E+02  1726   0.157E+01    0.874E+01
RMM:   7    -0.123117615008E+04    0.22658E+02   -0.18038E+01  1541   0.659E+00    0.676E+01
RMM:   8    -0.122050068873E+04    0.10675E+02   -0.19813E+01  1580   0.516E+00    0.585E+01
RMM:   9    -0.117968476699E+04    0.40816E+02   -0.48948E+01  1710   0.919E+00    0.281E+01
RMM:  10    -0.117878958915E+04    0.89518E+00   -0.36406E+00  1654   0.332E+00    0.235E+01
RMM:  11    -0.117673143559E+04    0.20582E+01   -0.24543E+00  1544   0.225E+00    0.198E+01
RMM:  12    -0.117559380525E+04    0.11376E+01   -0.22067E+01  1968   0.563E+00    0.957E+00
RMM:  13    -0.117513161073E+04    0.46219E+00   -0.84578E-01  1537   0.160E+00    0.754E+00
RMM:  14    -0.117488562197E+04    0.24599E+00   -0.95550E-01  1539   0.120E+00    0.509E+00
RMM:  15    -0.117471468007E+04    0.17094E+00   -0.45371E-01  1615   0.920E-01    0.265E+00
RMM:  16    -0.117469687294E+04    0.17807E-01   -0.61253E-02  1789   0.375E-01    0.248E+00
RMM:  17    -0.117466834953E+04    0.28523E-01   -0.19732E-02  1552   0.197E-01    0.211E+00
RMM:  18    -0.117462695888E+04    0.41391E-01   -0.35860E-02  1594   0.192E-01    0.136E+00
RMM:  19    -0.117460986236E+04    0.17097E-01   -0.13290E-02  1716   0.127E-01    0.925E-01
RMM:  20    -0.117459913282E+04    0.10730E-01   -0.10391E-02  1654   0.954E-02    0.556E-01
RMM:  21    -0.117459700024E+04    0.21326E-02   -0.63586E-03  1636   0.840E-02    0.362E-01
RMM:  22    -0.117459652175E+04    0.47848E-03   -0.16165E-03  1766   0.519E-02    0.282E-01
RMM:  23    -0.117459578325E+04    0.73850E-03   -0.73576E-04  1670   0.327E-02    0.170E-01
RMM:  24    -0.117459572075E+04    0.62507E-04   -0.36175E-04  1689   0.217E-02    0.148E-01
RMM:  25    -0.117459554444E+04    0.17631E-03   -0.53652E-04  1590   0.277E-02    0.101E-01
RMM:  26    -0.117459547878E+04    0.65653E-04   -0.10675E-04  1685   0.141E-02    0.751E-02
RMM:  27    -0.117459546851E+04    0.10277E-04   -0.50600E-05  1597   0.784E-03    0.714E-02
RMM:  28    -0.117459542358E+04    0.44924E-04   -0.49357E-05  1591   0.766E-03    0.283E-02
RMM:  29    -0.117459541687E+04    0.67148E-05   -0.22333E-05  1529   0.509E-03    0.207E-02
RMM:  30    -0.117459541315E+04    0.37198E-05   -0.43433E-06  1175   0.320E-03    0.132E-02
RMM:  31    -0.117459541090E+04    0.22473E-05   -0.53059E-06  1277   0.294E-03    0.533E-03
RMM:  32    -0.117459541036E+04    0.54158E-06   -0.16424E-06  1043   0.207E-03
   1 F= -.11816937E+04 E0= -.11816937E+04  d E =-.118169E+04  mag=    -0.0001
       N       E                     dE             d eps       ncg     rms          rms(c)
DAV:   1    -0.117459512020E+04    0.29070E-03   -0.37942E-01  1536   0.101E+00    0.123E-01
RMM:   2    -0.117459593371E+04   -0.81351E-03   -0.95446E-03  1621   0.156E-01    0.135E-01
RMM:   3    -0.117459611136E+04   -0.17764E-03   -0.20729E-03  1877   0.685E-02    0.133E-01
RMM:   4    -0.117459611452E+04   -0.31644E-05   -0.30710E-04  1903   0.248E-02    0.134E-01
RMM:   5    -0.117459609395E+04    0.20575E-04   -0.26625E-05  1702   0.702E-03    0.133E-01
RMM:   6    -0.117459601330E+04    0.80650E-04   -0.36306E-05  1547   0.717E-03    0.123E-01
RMM:   7    -0.117459631409E+04   -0.30079E-03   -0.30546E-03  1536   0.618E-02    0.136E-01
RMM:   8    -0.117459609298E+04    0.22111E-03   -0.29440E-04  1576   0.295E-02    0.109E-01
RMM:   9    -0.117459599559E+04    0.97383E-04   -0.83127E-05  1583   0.135E-02    0.838E-02
RMM:  10    -0.117459592402E+04    0.71571E-04   -0.85444E-05  1597   0.113E-02    0.570E-02
RMM:  11    -0.117459590182E+04    0.22200E-04   -0.82677E-05  1587   0.106E-02    0.314E-02
RMM:  12    -0.117459590804E+04   -0.62223E-05   -0.77092E-06  1514   0.509E-03    0.313E-02
RMM:  13    -0.117459590072E+04    0.73266E-05   -0.14656E-05  1553   0.483E-03    0.185E-02
RMM:  14    -0.117459589816E+04    0.25624E-05   -0.22390E-05  1602   0.540E-03    0.942E-03
RMM:  15    -0.117459589890E+04   -0.74728E-06   -0.33039E-06  1209   0.287E-03
   2 F= -.11816946E+04 E0= -.11816946E+04  d E =-.890255E-03  mag=     0.0000
       N       E                     dE             d eps       ncg     rms          rms(c)
DAV:   1    -0.117459615102E+04   -0.25286E-03   -0.31641E-02  1632   0.290E-01    0.363E-02
RMM:   2    -0.117459619737E+04   -0.46347E-04   -0.61080E-04  1564   0.434E-02    0.380E-02
RMM:   3    -0.117459620794E+04   -0.10569E-04   -0.15451E-04  1864   0.195E-02    0.372E-02
RMM:   4    -0.117459620757E+04    0.36720E-06   -0.24086E-05  1584   0.691E-03    0.375E-02
RMM:   5    -0.117459620599E+04    0.15814E-05   -0.19612E-06  1056   0.239E-03    0.371E-02
RMM:   6    -0.117459619396E+04    0.12030E-04   -0.92888E-06  1482   0.377E-03    0.293E-02
RMM:   7    -0.117459619734E+04   -0.33866E-05   -0.15469E-04  1543   0.145E-02    0.214E-02
RMM:   8    -0.117459619280E+04    0.45418E-05   -0.16866E-05  1636   0.686E-03    0.183E-02
RMM:   9    -0.117459618749E+04    0.53072E-05   -0.39685E-06  1260   0.299E-03    0.131E-02
RMM:  10    -0.117459618491E+04    0.25843E-05   -0.55009E-06  1328   0.286E-03    0.686E-03
RMM:  11    -0.117459618454E+04    0.36498E-06   -0.50191E-06  1311   0.276E-03
   3 F= -.11816947E+04 E0= -.11816947E+04  d E =-.105964E-02  mag=    -0.0000
       N       E                     dE             d eps       ncg     rms          rms(c)
DAV:   1    -0.117459682304E+04   -0.63813E-03   -0.14257E-01  1760   0.606E-01    0.734E-02
RMM:   2    -0.117459697036E+04   -0.14732E-03   -0.22846E-03  1540   0.832E-02    0.687E-02
RMM:   3    -0.117459699520E+04   -0.24845E-04   -0.53924E-04  1819   0.373E-02    0.639E-02
RMM:   4    -0.117459698397E+04    0.11230E-04   -0.86167E-05  1758   0.143E-02    0.566E-02
RMM:   5    -0.117459697864E+04    0.53315E-05   -0.83674E-05  1538   0.119E-02    0.320E-02
RMM:   6    -0.117459700588E+04   -0.27241E-04   -0.98498E-05  1548   0.128E-02    0.169E-02
RMM:   7    -0.117459699864E+04    0.72444E-05   -0.11161E-05  1546   0.615E-03    0.122E-02
RMM:   8    -0.117459699829E+04    0.34376E-06   -0.82402E-06  1421   0.347E-03
   4 F= -.11816956E+04 E0= -.11816956E+04  d E =-.874238E-03  mag=     0.0000
       N       E                     dE             d eps       ncg     rms          rms(c)
DAV:   1    -0.117459703724E+04   -0.38600E-04   -0.13552E-02  1728   0.187E-01    0.237E-02
RMM:   2    -0.117459705080E+04   -0.13559E-04   -0.21379E-04  1536   0.257E-02    0.220E-02
RMM:   3    -0.117459705349E+04   -0.26889E-05   -0.50692E-05  1752   0.117E-02    0.201E-02
RMM:   4    -0.117459705415E+04   -0.66758E-06   -0.84264E-06  1325   0.479E-03
   5 F= -.11816957E+04 E0= -.11816957E+04  d E =-.949094E-03  mag=    -0.0000
       N       E                     dE             d eps       ncg     rms          rms(c)
DAV:   1    -0.117459753988E+04   -0.48639E-03   -0.93385E-02  1664   0.465E-01    0.696E-02
RMM:   2    -0.117459756470E+04   -0.24824E-04   -0.13521E-03  1536   0.647E-02    0.633E-02
RMM:   3    -0.117459757339E+04   -0.86849E-05   -0.32467E-04  1792   0.296E-02    0.580E-02
RMM:   4    -0.117459757872E+04   -0.53341E-05   -0.62699E-05  1674   0.122E-02    0.463E-02
RMM:   5    -0.117459764356E+04   -0.64841E-04   -0.13468E-04  1542   0.149E-02    0.150E-02
RMM:   6    -0.117459765088E+04   -0.73222E-05   -0.21454E-05  1729   0.723E-03    0.128E-02
RMM:   7    -0.117459764816E+04    0.27185E-05   -0.64342E-06  1420   0.354E-03    0.827E-03
RMM:   8    -0.117459765003E+04   -0.18683E-05   -0.61120E-06  1378   0.293E-03    0.421E-03
RMM:   9    -0.117459765006E+04   -0.22483E-07   -0.10822E-06  1021   0.206E-03
   6 F= -.11816963E+04 E0= -.11816963E+04  d E =-.660422E-03  mag=    -0.0000
       N       E                     dE             d eps       ncg     rms          rms(c)
DAV:   1    -0.117459768989E+04   -0.39857E-04   -0.40163E-02  1664   0.305E-01    0.434E-02
RMM:   2    -0.117459769643E+04   -0.65443E-05   -0.59888E-04  1536   0.430E-02    0.396E-02
RMM:   3    -0.117459769646E+04   -0.21362E-07   -0.14061E-04  1782   0.196E-02    0.362E-02
RMM:   4    -0.117459770083E+04   -0.43736E-05   -0.27452E-05  1652   0.803E-03    0.300E-02
RMM:   5    -0.117459773572E+04   -0.34893E-04   -0.54236E-05  1542   0.942E-03    0.106E-02
RMM:   6    -0.117459774063E+04   -0.49082E-05   -0.10618E-05  1595   0.493E-03    0.872E-03
RMM:   7    -0.117459773938E+04    0.12491E-05   -0.22360E-06  1073   0.264E-03    0.588E-03
RMM:   8    -0.117459774031E+04   -0.92863E-06   -0.37941E-06  1277   0.230E-03
   7 F= -.11816965E+04 E0= -.11816965E+04  d E =-.793609E-03  mag=    -0.0000
       N       E                     dE             d eps       ncg     rms          rms(c)
DAV:   1    -0.117459802510E+04   -0.28572E-03   -0.40881E-02  1664   0.290E-01    0.432E-02
RMM:   2    -0.117459801773E+04    0.73709E-05   -0.54060E-04  1540   0.397E-02    0.394E-02
RMM:   3    -0.117459801830E+04   -0.57303E-06   -0.13206E-04  1791   0.186E-02    0.360E-02
RMM:   4    -0.117459802815E+04   -0.98515E-05   -0.24932E-05  1620   0.745E-03    0.293E-02
RMM:   5    -0.117459807746E+04   -0.49301E-04   -0.39351E-05  1548   0.836E-03    0.844E-03
RMM:   6    -0.117459808062E+04   -0.31679E-05   -0.56066E-06  1346   0.387E-03    0.647E-03
RMM:   7    -0.117459808001E+04    0.61657E-06   -0.15408E-06  1032   0.211E-03
   8 F= -.11816969E+04 E0= -.11816969E+04  d E =-.423175E-03  mag=     0.0000
       N       E                     dE             d eps       ncg     rms          rms(c)
DAV:   1    -0.117459824466E+04   -0.16403E-03   -0.95047E-02  1664   0.442E-01    0.659E-02
RMM:   2    -0.117459826174E+04   -0.17084E-04   -0.12820E-03  1540   0.611E-02    0.602E-02
RMM:   3    -0.117459827099E+04   -0.92508E-05   -0.30815E-04  1791   0.284E-02    0.551E-02
RMM:   4    -0.117459828478E+04   -0.13785E-04   -0.58258E-05  1676   0.113E-02    0.453E-02
RMM:   5    -0.117459836771E+04   -0.82932E-04   -0.91904E-05  1552   0.125E-02    0.133E-02
RMM:   6    -0.117459837603E+04   -0.83225E-05   -0.13655E-05  1659   0.585E-03    0.100E-02
RMM:   7    -0.117459837453E+04    0.14997E-05   -0.42015E-06  1284   0.300E-03    0.643E-03
RMM:   8    -0.117459837555E+04   -0.10227E-05   -0.35929E-06  1286   0.233E-03    0.361E-03
RMM:   9    -0.117459837547E+04    0.89160E-07   -0.10094E-06  1022   0.184E-03
   9 F= -.11816973E+04 E0= -.11816973E+04  d E =-.846347E-03  mag=    -0.0000
       N       E                     dE             d eps       ncg     rms          rms(c)
DAV:   1    -0.117459767718E+04    0.69837E-03   -0.37953E-01  1664   0.883E-01    0.132E-01
RMM:   2    -0.117459788827E+04   -0.21109E-03   -0.50580E-03  1540   0.121E-01    0.119E-01
RMM:   3    -0.117459793612E+04   -0.47848E-04   -0.12367E-03  1778   0.561E-02    0.109E-01
RMM:   4    -0.117459797599E+04   -0.39872E-04   -0.20842E-04  1693   0.225E-02    0.884E-02
RMM:   5    -0.117459815947E+04   -0.18348E-03   -0.38389E-04  1554   0.250E-02    0.252E-02
RMM:   6    -0.117459817666E+04   -0.17189E-04   -0.49653E-05  1794   0.113E-02    0.199E-02
RMM:   7    -0.117459817168E+04    0.49802E-05   -0.18085E-05  1524   0.543E-03    0.130E-02
RMM:   8    -0.117459817746E+04   -0.57775E-05   -0.10754E-05  1498   0.413E-03    0.724E-03
RMM:   9    -0.117459817701E+04    0.45339E-06   -0.35034E-06  1178   0.296E-03
  10 F= -.11816974E+04 E0= -.11816974E+04  d E =-.905491E-03  mag=     0.0000
       N       E                     dE             d eps       ncg     rms          rms(c)
DAV:   1    -0.117459829488E+04   -0.11742E-03   -0.84952E-02  1664   0.418E-01    0.615E-02
RMM:   2    -0.117459830056E+04   -0.56757E-05   -0.11217E-03  1540   0.571E-02    0.569E-02
RMM:   3    -0.117459830222E+04   -0.16588E-05   -0.27729E-04  1801   0.266E-02    0.521E-02
RMM:   4    -0.117459831645E+04   -0.14230E-04   -0.48276E-05  1669   0.102E-02    0.436E-02
RMM:   5    -0.117459839662E+04   -0.80172E-04   -0.79126E-05  1552   0.117E-02    0.124E-02
RMM:   6    -0.117459840658E+04   -0.99608E-05   -0.14211E-05  1622   0.572E-03    0.900E-03
RMM:   7    -0.117459840464E+04    0.19344E-05   -0.29372E-06  1146   0.292E-03    0.619E-03
RMM:   8    -0.117459840550E+04   -0.85998E-06   -0.36944E-06  1263   0.232E-03
  11 F= -.11816975E+04 E0= -.11816975E+04  d E =-.101141E-02  mag=     0.0000
       N       E                     dE             d eps       ncg     rms          rms(c)
DAV:   1    -0.117459880348E+04   -0.39884E-03   -0.96751E-02  1664   0.444E-01    0.609E-02
RMM:   2    -0.117459884917E+04   -0.45689E-04   -0.14446E-03  1538   0.636E-02    0.544E-02
RMM:   3    -0.117459885907E+04   -0.98975E-05   -0.33090E-04  1739   0.292E-02    0.492E-02
RMM:   4    -0.117459886408E+04   -0.50090E-05   -0.62581E-05  1750   0.120E-02    0.410E-02
RMM:   5    -0.117459891050E+04   -0.46421E-04   -0.70747E-05  1548   0.109E-02    0.156E-02
RMM:   6    -0.117459893074E+04   -0.20240E-04   -0.23693E-05  1596   0.685E-03    0.966E-03
RMM:   7    -0.117459892879E+04    0.19501E-05   -0.42965E-06  1326   0.348E-03    0.671E-03
RMM:   8    -0.117459893045E+04   -0.16632E-05   -0.47803E-06  1345   0.260E-03    0.386E-03
RMM:   9    -0.117459893068E+04   -0.22435E-06   -0.65402E-07  1018   0.159E-03
  12 F= -.11816981E+04 E0= -.11816981E+04  d E =-.637221E-03  mag=     0.0000
       N       E                     dE             d eps       ncg     rms          rms(c)
DAV:   1    -0.117459864275E+04    0.28770E-03   -0.47717E-01  1600   0.987E-01    0.134E-01
RMM:   2    -0.117459903538E+04   -0.39264E-03   -0.71466E-03  1538   0.142E-01    0.120E-01
RMM:   3    -0.117459910764E+04   -0.72261E-04   -0.16397E-03  1736   0.649E-02    0.109E-01
RMM:   4    -0.117459912284E+04   -0.15192E-04   -0.31344E-04  1766   0.268E-02    0.914E-02
RMM:   5    -0.117459921563E+04   -0.92795E-04   -0.34253E-04  1544   0.236E-02    0.351E-02
RMM:   6    -0.117459929394E+04   -0.78313E-04   -0.11727E-04  1629   0.151E-02    0.217E-02
RMM:   7    -0.117459928454E+04    0.94048E-05   -0.20766E-05  1540   0.733E-03    0.152E-02
RMM:   8    -0.117459929348E+04   -0.89443E-05   -0.26689E-05  1534   0.600E-03    0.828E-03
RMM:   9    -0.117459929470E+04   -0.12121E-05   -0.31716E-06  1157   0.314E-03    0.570E-03
RMM:  10    -0.117459929450E+04    0.19075E-06   -0.43915E-06  1324   0.277E-03
  13 F= -.11816987E+04 E0= -.11816987E+04  d E =-.125194E-02  mag=     0.0000
       N       E                     dE             d eps       ncg     rms          rms(c)
DAV:   1    -0.117459970375E+04   -0.40906E-03   -0.11283E-01  1664   0.480E-01    0.621E-02
RMM:   2    -0.117459978575E+04   -0.81997E-04   -0.17457E-03  1538   0.708E-02    0.561E-02
RMM:   3    -0.117459980376E+04   -0.18013E-04   -0.39834E-04  1714   0.320E-02    0.492E-02
RMM:   4    -0.117459980804E+04   -0.42765E-05   -0.73819E-05  1758   0.132E-02    0.411E-02
RMM:   5    -0.117459983649E+04   -0.28453E-04   -0.44602E-05  1542   0.903E-03    0.223E-02
RMM:   6    -0.117459986589E+04   -0.29397E-04   -0.39675E-05  1560   0.826E-03    0.102E-02
RMM:   7    -0.117459986507E+04    0.82309E-06   -0.42068E-06  1223   0.375E-03
  14 F= -.11816994E+04 E0= -.11816994E+04  d E =-.669817E-03  mag=     0.0000
