       N       E                     dE             d eps       ncg     rms          rms(c)
DAV:   1     0.498858651963E+04    0.49886E+04   -0.16997E+05  1800   0.909E+02
DAV:   2    -0.204476374000E+02   -0.50090E+04   -0.45690E+04  2520   0.211E+02
DAV:   3    -0.117354286082E+04   -0.11531E+04   -0.11479E+04  2160   0.112E+02
DAV:   4    -0.122060300669E+04   -0.47060E+02   -0.46853E+02  2052   0.298E+01
DAV:   5    -0.122181032225E+04   -0.12073E+01   -0.12053E+01  2412   0.445E+00    0.598E+01
RMM:   6    -0.121085091343E+04    0.10959E+02   -0.64171E+00  1584   0.304E+00    0.488E+01
RMM:   7    -0.117283794440E+04    0.38013E+02   -0.53268E+01  1584   0.854E+00    0.289E+01
RMM:   8    -0.116088613437E+04    0.11952E+02   -0.39735E+01  1584   0.726E+00    0.154E+01
RMM:   9    -0.116215923970E+04   -0.12731E+01   -0.10849E+01  1585   0.389E+00    0.927E+00
RMM:  10    -0.116132558379E+04    0.83366E+00   -0.15954E+00  1585   0.160E+00    0.323E+00
RMM:  11    -0.116119462819E+04    0.13096E+00   -0.49462E-01  1584   0.856E-01    0.149E+00
RMM:  12    -0.116118500896E+04    0.96192E-02   -0.11507E-01  1593   0.440E-01    0.489E-01
RMM:  13    -0.116118039592E+04    0.46130E-02   -0.22688E-02  1599   0.209E-01    0.266E-01
RMM:  14    -0.116118041570E+04   -0.19781E-04   -0.65672E-03  1704   0.996E-02    0.180E-01
RMM:  15    -0.116118099215E+04   -0.57645E-03   -0.20783E-03  1568   0.576E-02    0.126E-01
RMM:  16    -0.116118125132E+04   -0.25917E-03   -0.72232E-04  1369   0.368E-02    0.866E-02
RMM:  17    -0.116118148058E+04   -0.22926E-03   -0.59696E-04  1410   0.328E-02    0.407E-02
RMM:  18    -0.116118160893E+04   -0.12834E-03   -0.21676E-04  1118   0.213E-02    0.228E-02
RMM:  19    -0.116118170741E+04   -0.98482E-04   -0.90518E-05  1033   0.163E-02
   1 F= -.11681858E+04 E0= -.11681802E+04  d E =-.116819E+04  mag=    -0.8331
       N       E                     dE             d eps       ncg     rms          rms(c)
DAV:   1    -0.116118037857E+04    0.12304E-02   -0.40550E-01  1800   0.100E+00    0.158E-01
RMM:   2    -0.116118138498E+04   -0.10064E-02   -0.13051E-02  1586   0.156E-01    0.160E-01
RMM:   3    -0.116118132096E+04    0.64019E-04   -0.73904E-04  1430   0.405E-02
   2 F= -.11681857E+04 E0= -.11681801E+04  d E =0.113006E-03  mag=    -0.8297
       N       E                     dE             d eps       ncg     rms          rms(c)
DAV:   1    -0.116118176939E+04   -0.38441E-03   -0.10369E-01  1656   0.504E-01    0.531E-02
RMM:   2    -0.116118211934E+04   -0.34995E-03   -0.31743E-03  1584   0.826E-02    0.289E-02
RMM:   3    -0.116118213744E+04   -0.18102E-04   -0.13669E-04  1051   0.192E-02
   3 F= -.11681863E+04 E0= -.11681808E+04  d E =-.568257E-03  mag=    -0.8278
