       N       E                     dE             d eps       ncg     rms          rms(c)
DAV:   1     0.493258061304E+04    0.49326E+04   -0.17139E+05  1836   0.908E+02
DAV:   2    -0.533866283787E+02   -0.49860E+04   -0.45481E+04  2556   0.216E+02
DAV:   3    -0.118204148349E+04   -0.11287E+04   -0.11233E+04  2016   0.111E+02
DAV:   4    -0.123826525773E+04   -0.56224E+02   -0.55946E+02  2232   0.373E+01
DAV:   5    -0.124007112593E+04   -0.18059E+01   -0.17985E+01  2304   0.537E+00    0.705E+01
RMM:   6    -0.122608562879E+04    0.13985E+02   -0.82355E+00  1786   0.357E+00    0.574E+01
RMM:   7    -0.118328421316E+04    0.42801E+02   -0.81881E+01  1774   0.109E+01    0.348E+01
RMM:   8    -0.117724866784E+04    0.60355E+01   -0.10778E+01  1783   0.920E+00    0.239E+01
RMM:   9    -0.117460632347E+04    0.26423E+01   -0.30077E+01  1687   0.662E+00    0.154E+01
RMM:  10    -0.117519525493E+04   -0.58893E+00   -0.49993E+00  1719   0.712E+00    0.107E+01
RMM:  11    -0.117480157903E+04    0.39368E+00   -0.21024E+00  1990   0.175E+00    0.772E+00
RMM:  12    -0.117425265675E+04    0.54892E+00   -0.28469E+00  1762   0.200E+00    0.766E+00
RMM:  13    -0.117386426709E+04    0.38839E+00   -0.41544E-01  1838   0.139E+00    0.469E+00
RMM:  14    -0.117369434457E+04    0.16992E+00   -0.27518E-01  1682   0.656E-01    0.231E+00
RMM:  15    -0.117365021298E+04    0.44132E-01   -0.32557E-01  1827   0.896E-01    0.908E-01
RMM:  16    -0.117365386729E+04   -0.36543E-02   -0.34407E-02  1854   0.366E-01    0.108E+00
RMM:  17    -0.117365518823E+04   -0.13209E-02   -0.55286E-03  1736   0.127E-01    0.101E+00
RMM:  18    -0.117365212464E+04    0.30636E-02   -0.46247E-03  1699   0.964E-02    0.865E-01
RMM:  19    -0.117365182555E+04    0.29910E-03   -0.11790E-03  1509   0.731E-02    0.834E-01
RMM:  20    -0.117365102824E+04    0.79730E-03   -0.12157E-03  1442   0.638E-02    0.662E-01
RMM:  21    -0.117365105494E+04   -0.26699E-04   -0.49546E-04  1272   0.549E-02
   1 F= -.11807872E+04 E0= -.11807797E+04  d E =-.118079E+04  mag=    -0.7755
       N       E                     dE             d eps       ncg     rms          rms(c)
DAV:   1    -0.117365052228E+04    0.50597E-03   -0.27134E-01  1728   0.836E-01    0.524E-01
RMM:   2    -0.117365135316E+04   -0.83089E-03   -0.97787E-03  1799   0.139E-01    0.473E-01
RMM:   3    -0.117365094263E+04    0.41053E-03   -0.14503E-03  1636   0.121E-01    0.314E-01
RMM:   4    -0.117365104705E+04   -0.10442E-03   -0.27577E-03  1727   0.720E-02    0.893E-02
RMM:   5    -0.117365096060E+04    0.86452E-04   -0.28025E-04  1197   0.665E-02
   2 F= -.11807871E+04 E0= -.11807809E+04  d E =0.137303E-03  mag=    -0.8019
       N       E                     dE             d eps       ncg     rms          rms(c)
DAV:   1    -0.117365166540E+04   -0.61835E-03   -0.90097E-02  1800   0.481E-01    0.106E-01
RMM:   2    -0.117365176600E+04   -0.10060E-03   -0.24486E-03  1735   0.793E-02    0.920E-02
RMM:   3    -0.117365165437E+04    0.11164E-03   -0.25446E-04  1108   0.614E-02    0.826E-02
RMM:   4    -0.117365153308E+04    0.12129E-03   -0.24548E-04  1157   0.255E-02    0.533E-02
RMM:   5    -0.117365148624E+04    0.46840E-04   -0.19950E-04  1063   0.353E-02
   3 F= -.11807876E+04 E0= -.11807816E+04  d E =-.412541E-03  mag=    -0.8090
