       N       E                     dE             d eps       ncg     rms          rms(c)
DAV:   1     0.467642586786E+04    0.46764E+04   -0.17332E+05  1908   0.905E+02
DAV:   2    -0.977203022110E+02   -0.47741E+04   -0.43349E+04  2520   0.204E+02
DAV:   3    -0.118628376322E+04   -0.10886E+04   -0.10844E+04  2196   0.106E+02
DAV:   4    -0.122958465452E+04   -0.43301E+02   -0.43063E+02  2052   0.274E+01
DAV:   5    -0.123085157838E+04   -0.12669E+01   -0.12642E+01  2520   0.413E+00    0.700E+01
RMM:   6    -0.121775838805E+04    0.13093E+02   -0.72220E+00  1585   0.304E+00    0.596E+01
RMM:   7    -0.117051631364E+04    0.47242E+02   -0.87711E+01  1584   0.103E+01    0.342E+01
RMM:   8    -0.116648485417E+04    0.40315E+01   -0.16290E+01  1608   0.457E+00    0.217E+01
RMM:   9    -0.116703076352E+04   -0.54591E+00   -0.23245E+01  1590   0.534E+00    0.100E+01
RMM:  10    -0.116545538322E+04    0.15754E+01   -0.16636E+00  1584   0.147E+00    0.686E+00
RMM:  11    -0.116541576047E+04    0.39623E-01   -0.82101E-01  1645   0.897E-01    0.344E+00
RMM:  12    -0.116521527473E+04    0.20049E+00   -0.35086E-01  1585   0.548E-01    0.166E+00
RMM:  13    -0.116515514688E+04    0.60128E-01   -0.25821E-01  1593   0.549E-01    0.784E-01
RMM:  14    -0.116515241672E+04    0.27302E-02   -0.15211E-02  1612   0.132E-01    0.503E-01
RMM:  15    -0.116515286887E+04   -0.45215E-03   -0.62092E-03  1645   0.758E-02    0.450E-01
RMM:  16    -0.116515137213E+04    0.14967E-02   -0.92585E-03  1586   0.107E-01    0.230E-01
RMM:  17    -0.116515158108E+04   -0.20895E-03   -0.50239E-04  1356   0.274E-02    0.121E-01
RMM:  18    -0.116515149299E+04    0.88091E-04   -0.51216E-04  1319   0.222E-02
   1 F= -.11722228E+04 E0= -.11722228E+04  d E =-.117222E+04  mag=    -0.0021
       N       E                     dE             d eps       ncg     rms          rms(c)
DAV:   1    -0.116514863030E+04    0.29508E-02   -0.80498E-01  1656   0.135E+00    0.119E+00
RMM:   2    -0.116515210833E+04   -0.34780E-02   -0.39488E-02  1640   0.204E-01    0.114E+00
RMM:   3    -0.116515150629E+04    0.60204E-03   -0.19875E-03  1701   0.490E-02    0.895E-01
RMM:   4    -0.116515182801E+04   -0.32172E-03   -0.53916E-03  1590   0.752E-02    0.142E-01
RMM:   5    -0.116515134332E+04    0.48470E-03   -0.29727E-04  1188   0.184E-02    0.933E-02
RMM:   6    -0.116515129514E+04    0.48179E-04   -0.66987E-04  1423   0.229E-02
   2 F= -.11722224E+04 E0= -.11722224E+04  d E =0.358793E-03  mag=    -0.0000
       N       E                     dE             d eps       ncg     rms          rms(c)
DAV:   1    -0.116515264507E+04   -0.13018E-02   -0.23630E-01  1656   0.730E-01    0.656E-01
RMM:   2    -0.116515355076E+04   -0.90569E-03   -0.11010E-02  1626   0.109E-01    0.624E-01
RMM:   3    -0.116515327619E+04    0.27457E-03   -0.65138E-04  1333   0.293E-02    0.445E-01
RMM:   4    -0.116515339443E+04   -0.11823E-03   -0.16573E-03  1589   0.419E-02    0.842E-02
RMM:   5    -0.116515321528E+04    0.17915E-03   -0.18653E-04  1093   0.137E-02    0.498E-02
RMM:   6    -0.116515321868E+04   -0.33977E-05   -0.14294E-04  1072   0.121E-02
   3 F= -.11722244E+04 E0= -.11722244E+04  d E =-.165039E-02  mag=    -0.0000
       N       E                     dE             d eps       ncg     rms          rms(c)
DAV:   1    -0.116515268523E+04    0.53005E-03   -0.41426E-01  1728   0.989E-01    0.739E-01
RMM:   2    -0.116515409303E+04   -0.14078E-02   -0.18310E-02  1593   0.147E-01    0.667E-01
RMM:   3    -0.116515329890E+04    0.79413E-03   -0.14343E-03  1599   0.453E-02    0.415E-01
RMM:   4    -0.116515336267E+04   -0.63773E-04   -0.25088E-03  1588   0.540E-02    0.846E-02
RMM:   5    -0.116515318974E+04    0.17293E-03   -0.25290E-04  1152   0.163E-02    0.510E-02
RMM:   6    -0.116515319034E+04   -0.60134E-06   -0.10999E-04  1050   0.115E-02
   4 F= -.11722244E+04 E0= -.11722244E+04  d E =-.410984E-04  mag=    -0.0000
       N       E                     dE             d eps       ncg     rms          rms(c)
DAV:   1    -0.116515390161E+04   -0.71187E-03   -0.10946E-01  1728   0.509E-01    0.384E-01
RMM:   2    -0.116515424949E+04   -0.34788E-03   -0.48286E-03  1596   0.763E-02    0.343E-01
RMM:   3    -0.116515400493E+04    0.24456E-03   -0.36485E-04  1219   0.237E-02    0.211E-01
RMM:   4    -0.116515400773E+04   -0.28013E-05   -0.68483E-04  1554   0.294E-02
   5 F= -.11722252E+04 E0= -.11722252E+04  d E =-.823813E-03  mag=    -0.0000
