       N       E                     dE             d eps       ncg     rms          rms(c)
DAV:   1     0.482018701226E+04    0.48202E+04   -0.17031E+05  1872   0.901E+02
DAV:   2    -0.851518790946E+02   -0.49053E+04   -0.44574E+04  2556   0.206E+02
DAV:   3    -0.118642201370E+04   -0.11013E+04   -0.10960E+04  2124   0.107E+02
DAV:   4    -0.123240517324E+04   -0.45983E+02   -0.45764E+02  2124   0.284E+01
DAV:   5    -0.123367761764E+04   -0.12724E+01   -0.12699E+01  2520   0.409E+00    0.618E+01
RMM:   6    -0.121954989785E+04    0.14128E+02   -0.76692E+00  1591   0.307E+00    0.504E+01
RMM:   7    -0.118303304726E+04    0.36517E+02   -0.51468E+01  1589   0.797E+00    0.299E+01
RMM:   8    -0.116971126439E+04    0.13322E+02   -0.25480E+01  1596   0.566E+00    0.201E+01
RMM:   9    -0.116846768062E+04    0.12436E+01   -0.22026E+01  1587   0.528E+00    0.934E+00
RMM:  10    -0.116891580469E+04   -0.44812E+00   -0.14455E+00  1628   0.146E+00    0.717E+00
RMM:  11    -0.116788027922E+04    0.10355E+01   -0.38722E+00  1585   0.212E+00    0.209E+00
RMM:  12    -0.116791096389E+04   -0.30685E-01   -0.57236E-02  1612   0.326E-01    0.931E-01
RMM:  13    -0.116792237686E+04   -0.11413E-01   -0.30945E-02  1602   0.182E-01    0.418E-01
RMM:  14    -0.116792230718E+04    0.69677E-04   -0.14991E-02  1614   0.125E-01    0.195E-01
RMM:  15    -0.116792285559E+04   -0.54840E-03   -0.33543E-03  1594   0.603E-02    0.135E-01
RMM:  16    -0.116792325466E+04   -0.39908E-03   -0.22925E-03  1593   0.528E-02    0.889E-02
RMM:  17    -0.116792319238E+04    0.62279E-04   -0.72761E-04  1558   0.303E-02
   1 F= -.11750229E+04 E0= -.11750157E+04  d E =-.117502E+04  mag=    -0.9881
       N       E                     dE             d eps       ncg     rms          rms(c)
DAV:   1    -0.116792238560E+04    0.86906E-03   -0.17287E+00  1620   0.177E+00    0.728E-01
RMM:   2    -0.116792499364E+04   -0.26080E-02   -0.46649E-02  1639   0.247E-01    0.651E-01
RMM:   3    -0.116792395133E+04    0.10423E-02   -0.35097E-03  1678   0.583E-02    0.557E-01
RMM:   4    -0.116792394363E+04    0.77083E-05   -0.53886E-03  1583   0.689E-02    0.274E-01
RMM:   5    -0.116792372306E+04    0.22057E-03   -0.64860E-04  1345   0.274E-02    0.834E-02
RMM:   6    -0.116792350392E+04    0.21914E-03   -0.58128E-04  1245   0.205E-02    0.373E-02
RMM:   7    -0.116792348693E+04    0.16992E-04   -0.89426E-05  1045   0.108E-02
   2 F= -.11750234E+04 E0= -.11750140E+04  d E =-.527653E-03  mag=    -0.9801
       N       E                     dE             d eps       ncg     rms          rms(c)
DAV:   1    -0.116792693238E+04   -0.34285E-02   -0.42554E-01  1620   0.873E-01    0.356E-01
RMM:   2    -0.116792732409E+04   -0.39171E-03   -0.93605E-03  1627   0.117E-01    0.318E-01
RMM:   3    -0.116792703209E+04    0.29200E-03   -0.74328E-04  1320   0.277E-02    0.267E-01
RMM:   4    -0.116792702131E+04    0.10772E-04   -0.12740E-03  1489   0.342E-02    0.135E-01
RMM:   5    -0.116792698052E+04    0.40791E-04   -0.17103E-04  1071   0.155E-02
   3 F= -.11750268E+04 E0= -.11750185E+04  d E =-.389872E-02  mag=    -0.9828
       N       E                     dE             d eps       ncg     rms          rms(c)
DAV:   1    -0.116792800591E+04   -0.98459E-03   -0.62780E-01  1656   0.120E+00    0.364E-01
RMM:   2    -0.116792831860E+04   -0.31269E-03   -0.12821E-02  1591   0.162E-01    0.306E-01
RMM:   3    -0.116792764529E+04    0.67331E-03   -0.11728E-03  1577   0.394E-02    0.240E-01
RMM:   4    -0.116792731252E+04    0.33276E-03   -0.16661E-03  1574   0.424E-02    0.132E-01
RMM:   5    -0.116792735830E+04   -0.45777E-04   -0.54195E-04  1479   0.264E-02
   4 F= -.11750276E+04 E0= -.11750182E+04  d E =-.827312E-03  mag=    -0.9800
       N       E                     dE             d eps       ncg     rms          rms(c)
DAV:   1    -0.116792850644E+04   -0.11939E-02   -0.11832E-01  1728   0.521E-01    0.156E-01
RMM:   2    -0.116792850143E+04    0.50063E-05   -0.22598E-03  1585   0.667E-02    0.131E-01
RMM:   3    -0.116792831376E+04    0.18767E-03   -0.23653E-04  1100   0.185E-02    0.992E-02
RMM:   4    -0.116792822022E+04    0.93535E-04   -0.43053E-04  1335   0.230E-02
   5 F= -.11750283E+04 E0= -.11750192E+04  d E =-.149268E-02  mag=    -0.9809
       N       E                     dE             d eps       ncg     rms          rms(c)
DAV:   1    -0.116792970606E+04   -0.13923E-02   -0.37123E-01  1728   0.917E-01    0.206E-01
RMM:   2    -0.116792982122E+04   -0.11516E-03   -0.62540E-03  1589   0.115E-01    0.171E-01
RMM:   3    -0.116792950779E+04    0.31344E-03   -0.61041E-04  1376   0.291E-02    0.132E-01
RMM:   4    -0.116792936258E+04    0.14521E-03   -0.51422E-04  1373   0.246E-02    0.800E-02
RMM:   5    -0.116792939635E+04   -0.33769E-04   -0.29908E-04  1160   0.199E-02
   6 F= -.11750297E+04 E0= -.11750203E+04  d E =-.146136E-02  mag=    -0.9797
       N       E                     dE             d eps       ncg     rms          rms(c)
DAV:   1    -0.116792944331E+04   -0.80735E-04   -0.60773E-03  1800   0.121E-01    0.291E-02
RMM:   2    -0.116792944368E+04   -0.36472E-06   -0.11594E-04  1005   0.171E-02
   7 F= -.11750297E+04 E0= -.11750203E+04  d E =-.147119E-02  mag=    -0.9797
       N       E                     dE             d eps       ncg     rms          rms(c)
DAV:   1    -0.116793039011E+04   -0.94680E-03   -0.23067E-01  1656   0.708E-01    0.125E-01
RMM:   2    -0.116793055759E+04   -0.16748E-03   -0.35438E-03  1589   0.863E-02    0.112E-01
RMM:   3    -0.116793046975E+04    0.87841E-04   -0.24611E-04  1148   0.200E-02
   8 F= -.11750309E+04 E0= -.11750212E+04  d E =-.120126E-02  mag=    -0.9783
       N       E                     dE             d eps       ncg     rms          rms(c)
DAV:   1    -0.116793033051E+04    0.22708E-03   -0.40888E-02  1728   0.300E-01    0.104E-01
RMM:   2    -0.116793032541E+04    0.51001E-05   -0.52477E-04  1332   0.331E-02
   9 F= -.11750309E+04 E0= -.11750209E+04  d E =-.113640E-02  mag=    -0.9777
       N       E                     dE             d eps       ncg     rms          rms(c)
DAV:   1    -0.116793062018E+04   -0.28968E-03   -0.11729E-01  1728   0.556E-01    0.792E-02
RMM:   2    -0.116793082756E+04   -0.20738E-03   -0.26832E-03  1595   0.790E-02    0.760E-02
RMM:   3    -0.116793080121E+04    0.26348E-04   -0.10341E-04  1041   0.150E-02
  10 F= -.11750313E+04 E0= -.11750213E+04  d E =-.386809E-03  mag=    -0.9778
       N       E                     dE             d eps       ncg     rms          rms(c)
DAV:   1    -0.116793096919E+04   -0.14162E-03   -0.16981E-02  1764   0.211E-01    0.374E-02
RMM:   2    -0.116793100792E+04   -0.38729E-04   -0.71640E-04  1524   0.417E-02
  11 F= -.11750315E+04 E0= -.11750215E+04  d E =-.623017E-03  mag=    -0.9778
