       N       E                     dE             d eps       ncg     rms          rms(c)
DAV:   1     0.490070445405E+04    0.49007E+04   -0.16887E+05  1692   0.985E+02
DAV:   2     0.286148521115E+01   -0.48978E+04   -0.44953E+04  2268   0.219E+02
DAV:   3    -0.117513253243E+04   -0.11780E+04   -0.11702E+04  1872   0.118E+02
DAV:   4    -0.122665174013E+04   -0.51519E+02   -0.51137E+02  1872   0.329E+01
DAV:   5    -0.122789915839E+04   -0.12474E+01   -0.12425E+01  1980   0.483E+00    0.647E+01
RMM:   6    -0.121349150000E+04    0.14408E+02   -0.26155E+01  1440   0.536E+00    0.511E+01
RMM:   7    -0.119716680664E+04    0.16325E+02   -0.80190E+00  1440   0.348E+00    0.411E+01
RMM:   8    -0.117083396296E+04    0.26333E+02   -0.34058E+01  1440   0.728E+00    0.264E+01
RMM:   9    -0.116130413705E+04    0.95298E+01   -0.16124E+01  1440   0.501E+00    0.192E+01
RMM:  10    -0.116157570832E+04   -0.27157E+00   -0.18974E+01  1440   0.530E+00    0.916E+00
RMM:  11    -0.116137698008E+04    0.19873E+00   -0.15101E+00  1488   0.149E+00    0.700E+00
RMM:  12    -0.116115412824E+04    0.22285E+00   -0.28027E-01  1440   0.600E-01    0.500E+00
RMM:  13    -0.116057533237E+04    0.57880E+00   -0.16462E+00  1440   0.153E+00    0.127E+00
RMM:  14    -0.116055675145E+04    0.18581E-01   -0.83216E-02  1475   0.331E-01    0.119E+00
RMM:  15    -0.116055762477E+04   -0.87332E-03   -0.21815E-02  1440   0.177E-01    0.903E-01
RMM:  16    -0.116055067002E+04    0.69547E-02   -0.25577E-02  1440   0.194E-01    0.498E-01
RMM:  17    -0.116054688622E+04    0.37838E-02   -0.48348E-03  1442   0.722E-02    0.302E-01
RMM:  18    -0.116054616791E+04    0.71831E-03   -0.25584E-03  1444   0.548E-02    0.141E-01
RMM:  19    -0.116054612135E+04    0.46555E-04   -0.68056E-04  1127   0.290E-02
   1 F= -.11676134E+04 E0= -.11676133E+04  d E =-.116761E+04  mag=    -0.0089
       N       E                     dE             d eps       ncg     rms          rms(c)
DAV:   1    -0.116054880542E+04   -0.26375E-02   -0.88263E-01  1584   0.135E+00    0.400E-01
RMM:   2    -0.116054927389E+04   -0.46847E-03   -0.15414E-02  1441   0.184E-01    0.365E-01
RMM:   3    -0.116054833314E+04    0.94076E-03   -0.13418E-03  1419   0.453E-02    0.297E-01
RMM:   4    -0.116054714173E+04    0.11914E-02   -0.38059E-03  1440   0.735E-02    0.112E-01
RMM:   5    -0.116054713691E+04    0.48267E-05   -0.61548E-04  1362   0.310E-02
   2 F= -.11676145E+04 E0= -.11676140E+04  d E =-.101498E-02  mag=    -0.0002
       N       E                     dE             d eps       ncg     rms          rms(c)
DAV:   1    -0.116054866013E+04   -0.15184E-02   -0.15927E-01  1512   0.572E-01    0.166E-01
RMM:   2    -0.116054861350E+04    0.46630E-04   -0.23302E-03  1425   0.741E-02    0.150E-01
RMM:   3    -0.116054830429E+04    0.30922E-03   -0.28247E-04   964   0.221E-02    0.112E-01
RMM:   4    -0.116054805076E+04    0.25352E-03   -0.97896E-04  1433   0.375E-02    0.434E-02
RMM:   5    -0.116054804665E+04    0.41133E-05   -0.70062E-05   867   0.120E-02
   3 F= -.11676154E+04 E0= -.11676151E+04  d E =-.192217E-02  mag=    -0.0000
       N       E                     dE             d eps       ncg     rms          rms(c)
DAV:   1    -0.116054771282E+04    0.33794E-03   -0.32719E-01  1440   0.905E-01    0.167E-01
RMM:   2    -0.116054808614E+04   -0.37332E-03   -0.60702E-03  1440   0.126E-01    0.156E-01
RMM:   3    -0.116054788703E+04    0.19911E-03   -0.31749E-04  1026   0.264E-02    0.134E-01
RMM:   4    -0.116054761783E+04    0.26920E-03   -0.18014E-03  1440   0.512E-02    0.535E-02
RMM:   5    -0.116054763125E+04   -0.13419E-04   -0.57762E-05   881   0.123E-02
   4 F= -.11676149E+04 E0= -.11676146E+04  d E =0.427170E-03  mag=     0.0000
       N       E                     dE             d eps       ncg     rms          rms(c)
DAV:   1    -0.116054870450E+04   -0.10867E-02   -0.12245E-01  1584   0.554E-01    0.105E-01
RMM:   2    -0.116054883506E+04   -0.13056E-03   -0.21810E-03  1434   0.758E-02    0.101E-01
RMM:   3    -0.116054878575E+04    0.49308E-04   -0.11463E-04   898   0.164E-02
   5 F= -.11676161E+04 E0= -.11676158E+04  d E =-.734743E-03  mag=    -0.0000
