       N       E                     dE             d eps       ncg     rms          rms(c)
DAV:   1     0.462235867977E+04    0.46224E+04   -0.17935E+05  1920   0.948E+02
DAV:   2    -0.738873282660E+02   -0.46962E+04   -0.42854E+04  2432   0.209E+02
DAV:   3    -0.119444717509E+04   -0.11206E+04   -0.11157E+04  2080   0.110E+02
DAV:   4    -0.124008006277E+04   -0.45633E+02   -0.45324E+02  1920   0.288E+01
DAV:   5    -0.124120642235E+04   -0.11264E+01   -0.11214E+01  2208   0.416E+00    0.772E+01
RMM:   6    -0.122499024308E+04    0.16216E+02   -0.95368E+00  1592   0.373E+00    0.585E+01
RMM:   7    -0.119488291571E+04    0.30107E+02   -0.48776E+01  1564   0.853E+00    0.343E+01
RMM:   8    -0.118123899517E+04    0.13644E+02   -0.20719E+01  1546   0.619E+00    0.261E+01
RMM:   9    -0.117526495069E+04    0.59740E+01   -0.21496E+01  1555   0.605E+00    0.171E+01
RMM:  10    -0.117747571019E+04   -0.22108E+01   -0.87999E+00  1651   0.397E+00    0.132E+01
RMM:  11    -0.117721083826E+04    0.26487E+00   -0.23047E+00  1707   0.221E+00    0.850E+00
RMM:  12    -0.117634741379E+04    0.86342E+00   -0.72643E-01  1583   0.111E+00    0.540E+00
RMM:  13    -0.117577228912E+04    0.57512E+00   -0.15416E+00  1559   0.150E+00    0.181E+00
RMM:  14    -0.117576434626E+04    0.79429E-02   -0.28723E-01  1585   0.761E-01    0.108E+00
RMM:  15    -0.117577265282E+04   -0.83066E-02   -0.45096E-02  1585   0.305E-01    0.797E-01
RMM:  16    -0.117576943326E+04    0.32196E-02   -0.15343E-02  1785   0.162E-01    0.631E-01
RMM:  17    -0.117576451773E+04    0.49155E-02   -0.60853E-03  1600   0.973E-02    0.441E-01
RMM:  18    -0.117576379001E+04    0.72772E-03   -0.71513E-03  1657   0.981E-02    0.273E-01
RMM:  19    -0.117576402875E+04   -0.23874E-03   -0.18357E-03  1661   0.593E-02    0.171E-01
RMM:  20    -0.117576406113E+04   -0.32378E-04   -0.51847E-04  1586   0.309E-02    0.144E-01
RMM:  21    -0.117576395743E+04    0.10370E-03   -0.71608E-04  1630   0.301E-02    0.710E-02
RMM:  22    -0.117576416112E+04   -0.20368E-03   -0.28820E-04  1592   0.202E-02    0.103E-01
RMM:  23    -0.117576404039E+04    0.12072E-03   -0.82613E-05  1728   0.119E-02    0.531E-02
RMM:  24    -0.117576400686E+04    0.33539E-04   -0.43424E-05  1614   0.782E-03    0.217E-02
RMM:  25    -0.117576401713E+04   -0.10271E-04   -0.18993E-05  1583   0.573E-03    0.256E-02
RMM:  26    -0.117576400530E+04    0.11826E-04   -0.10232E-05  1484   0.395E-03    0.985E-03
RMM:  27    -0.117576400274E+04    0.25614E-05   -0.41465E-06  1184   0.233E-03    0.395E-03
RMM:  28    -0.117576400333E+04   -0.59198E-06   -0.72113E-07  1016   0.126E-03
   1 F= -.11828907E+04 E0= -.11828907E+04  d E =-.118289E+04  mag=     0.0001
       N       E                     dE             d eps       ncg     rms          rms(c)
DAV:   1    -0.117576047466E+04    0.35281E-02   -0.45880E-01  1536   0.111E+00    0.339E-01
RMM:   2    -0.117576160786E+04   -0.11332E-02   -0.13342E-02  1644   0.181E-01    0.319E-01
RMM:   3    -0.117576154206E+04    0.65800E-04   -0.27602E-03  1784   0.774E-02    0.263E-01
RMM:   4    -0.117576162733E+04   -0.85270E-04   -0.32907E-03  1563   0.731E-02    0.736E-02
RMM:   5    -0.117576144039E+04    0.18695E-03   -0.34832E-04  1584   0.302E-02    0.556E-02
RMM:   6    -0.117576138444E+04    0.55952E-04   -0.19409E-04  1611   0.169E-02    0.269E-02
RMM:   7    -0.117576138289E+04    0.15507E-05   -0.41382E-05  1889   0.862E-03    0.161E-02
RMM:   8    -0.117576138034E+04    0.25516E-05   -0.57640E-05  1562   0.882E-03    0.853E-03
RMM:   9    -0.117576137787E+04    0.24622E-05   -0.74296E-06  1453   0.398E-03    0.547E-03
RMM:  10    -0.117576137788E+04   -0.51878E-08   -0.20267E-06  1044   0.188E-03
   2 F= -.11828889E+04 E0= -.11828889E+04  d E =0.183388E-02  mag=    -0.0000
       N       E                     dE             d eps       ncg     rms          rms(c)
DAV:   1    -0.117576395567E+04   -0.25778E-02   -0.21522E-01  1728   0.758E-01    0.231E-01
RMM:   2    -0.117576439990E+04   -0.44423E-03   -0.54800E-03  1632   0.120E-01    0.217E-01
RMM:   3    -0.117576433513E+04    0.64775E-04   -0.10898E-03  1653   0.505E-02    0.176E-01
RMM:   4    -0.117576436676E+04   -0.31632E-04   -0.14747E-03  1564   0.490E-02    0.505E-02
RMM:   5    -0.117576428134E+04    0.85416E-04   -0.15342E-04  1555   0.201E-02    0.376E-02
RMM:   6    -0.117576426121E+04    0.20133E-04   -0.75836E-05  1611   0.108E-02    0.191E-02
RMM:   7    -0.117576425896E+04    0.22524E-05   -0.19329E-05  1870   0.571E-03    0.116E-02
RMM:   8    -0.117576425748E+04    0.14763E-05   -0.21123E-05  1534   0.539E-03    0.566E-03
RMM:   9    -0.117576425667E+04    0.81751E-06   -0.27002E-06  1111   0.249E-03
   3 F= -.11828912E+04 E0= -.11828912E+04  d E =-.502558E-03  mag=     0.0000
       N       E                     dE             d eps       ncg     rms          rms(c)
DAV:   1    -0.117576433329E+04   -0.75807E-04   -0.19631E-01  1760   0.704E-01    0.112E-01
RMM:   2    -0.117576462512E+04   -0.29183E-03   -0.37990E-03  1652   0.967E-02    0.939E-02
RMM:   3    -0.117576460515E+04    0.19971E-04   -0.78336E-04  1627   0.418E-02    0.735E-02
RMM:   4    -0.117576455691E+04    0.48236E-04   -0.50144E-04  1572   0.301E-02    0.269E-02
RMM:   5    -0.117576456082E+04   -0.39065E-05   -0.84942E-05  1916   0.137E-02    0.214E-02
RMM:   6    -0.117576455544E+04    0.53746E-05   -0.14703E-05  1599   0.509E-03    0.150E-02
RMM:   7    -0.117576455542E+04    0.27067E-07   -0.65342E-06  1518   0.325E-03
   4 F= -.11828918E+04 E0= -.11828918E+04  d E =-.584923E-03  mag=     0.0000
       N       E                     dE             d eps       ncg     rms          rms(c)
DAV:   1    -0.117576456351E+04   -0.80706E-05   -0.18083E-04  1792   0.216E-02    0.558E-03
RMM:   2    -0.117576456360E+04   -0.84859E-07   -0.30807E-06  1114   0.257E-03
   5 F= -.11828918E+04 E0= -.11828918E+04  d E =-.584072E-03  mag=     0.0000
       N       E                     dE             d eps       ncg     rms          rms(c)
DAV:   1    -0.117576480740E+04   -0.24388E-03   -0.88745E-02  1664   0.451E-01    0.689E-02
RMM:   2    -0.117576495123E+04   -0.14383E-03   -0.16820E-03  1670   0.611E-02    0.557E-02
RMM:   3    -0.117576496644E+04   -0.15209E-04   -0.33602E-04  1640   0.265E-02    0.447E-02
RMM:   4    -0.117576496217E+04    0.42610E-05   -0.13859E-04  1604   0.164E-02    0.162E-02
RMM:   5    -0.117576496551E+04   -0.33345E-05   -0.27733E-05  1848   0.736E-03    0.112E-02
RMM:   6    -0.117576496352E+04    0.19850E-05   -0.56914E-06  1410   0.313E-03    0.694E-03
RMM:   7    -0.117576496360E+04   -0.72840E-07   -0.22086E-06  1084   0.191E-03
   6 F= -.11828923E+04 E0= -.11828923E+04  d E =-.479036E-03  mag=     0.0000
       N       E                     dE             d eps       ncg     rms          rms(c)
DAV:   1    -0.117576497565E+04   -0.12128E-04   -0.61804E-02  1664   0.376E-01    0.584E-02
RMM:   2    -0.117576507584E+04   -0.10018E-03   -0.11786E-03  1670   0.513E-02    0.474E-02
RMM:   3    -0.117576508677E+04   -0.10936E-04   -0.24132E-04  1644   0.223E-02    0.382E-02
RMM:   4    -0.117576508396E+04    0.28076E-05   -0.98141E-05  1596   0.138E-02    0.134E-02
RMM:   5    -0.117576508635E+04   -0.23868E-05   -0.20125E-05  1824   0.629E-03    0.967E-03
RMM:   6    -0.117576508462E+04    0.17278E-05   -0.49192E-06  1361   0.283E-03    0.577E-03
RMM:   7    -0.117576508482E+04   -0.19239E-06   -0.15831E-06  1054   0.167E-03
   7 F= -.11828925E+04 E0= -.11828925E+04  d E =-.666531E-03  mag=     0.0000
       N       E                     dE             d eps       ncg     rms          rms(c)
DAV:   1    -0.117576527290E+04   -0.18828E-03   -0.12291E-01  1664   0.502E-01    0.908E-02
RMM:   2    -0.117576543826E+04   -0.16536E-03   -0.19290E-03  1602   0.647E-02    0.782E-02
RMM:   3    -0.117576544588E+04   -0.76270E-05   -0.33456E-04  1616   0.277E-02    0.632E-02
RMM:   4    -0.117576544931E+04   -0.34214E-05   -0.22239E-04  1574   0.201E-02    0.158E-02
RMM:   5    -0.117576544427E+04    0.50323E-05   -0.26011E-05  1684   0.801E-03    0.140E-02
RMM:   6    -0.117576543965E+04    0.46251E-05   -0.17089E-05  1506   0.483E-03    0.696E-03
RMM:   7    -0.117576543999E+04   -0.34215E-06   -0.30005E-06  1184   0.230E-03
   8 F= -.11828930E+04 E0= -.11828930E+04  d E =-.530348E-03  mag=     0.0000
       N       E                     dE             d eps       ncg     rms          rms(c)
DAV:   1    -0.117576539074E+04    0.48913E-04   -0.64758E-02  1664   0.364E-01    0.662E-02
RMM:   2    -0.117576547840E+04   -0.87660E-04   -0.10194E-03  1608   0.471E-02    0.572E-02
RMM:   3    -0.117576548299E+04   -0.45893E-05   -0.17795E-04  1624   0.202E-02    0.463E-02
RMM:   4    -0.117576548593E+04   -0.29418E-05   -0.11857E-04  1576   0.146E-02    0.117E-02
RMM:   5    -0.117576548302E+04    0.29031E-05   -0.13777E-05  1638   0.585E-03    0.103E-02
RMM:   6    -0.117576548042E+04    0.26033E-05   -0.10115E-05  1470   0.369E-03    0.495E-03
RMM:   7    -0.117576548059E+04   -0.16599E-06   -0.14196E-06  1037   0.173E-03
   9 F= -.11828932E+04 E0= -.11828932E+04  d E =-.698728E-03  mag=     0.0000
       N       E                     dE             d eps       ncg     rms          rms(c)
DAV:   1    -0.117576574161E+04   -0.26119E-03   -0.10478E-01  1664   0.449E-01    0.761E-02
RMM:   2    -0.117576588699E+04   -0.14538E-03   -0.17141E-03  1685   0.593E-02    0.641E-02
RMM:   3    -0.117576589910E+04   -0.12111E-04   -0.30584E-04  1615   0.253E-02    0.536E-02
RMM:   4    -0.117576589387E+04    0.52344E-05   -0.17286E-04  1590   0.177E-02    0.138E-02
RMM:   5    -0.117576589508E+04   -0.12092E-05   -0.26693E-05  1828   0.747E-03    0.114E-02
RMM:   6    -0.117576589092E+04    0.41621E-05   -0.11503E-05  1468   0.403E-03    0.637E-03
RMM:   7    -0.117576589110E+04   -0.18483E-06   -0.21752E-06  1100   0.195E-03
  10 F= -.11828936E+04 E0= -.11828936E+04  d E =-.442698E-03  mag=    -0.0000
       N       E                     dE             d eps       ncg     rms          rms(c)
DAV:   1    -0.117576593404E+04   -0.43124E-04   -0.20166E-01  1664   0.623E-01    0.106E-01
RMM:   2    -0.117576621401E+04   -0.27996E-03   -0.33055E-03  1680   0.824E-02    0.899E-02
RMM:   3    -0.117576623734E+04   -0.23331E-04   -0.58888E-04  1612   0.352E-02    0.750E-02
RMM:   4    -0.117576622898E+04    0.83593E-05   -0.33853E-04  1594   0.247E-02    0.194E-02
RMM:   5    -0.117576623108E+04   -0.21018E-05   -0.49883E-05  1876   0.103E-02    0.160E-02
RMM:   6    -0.117576622264E+04    0.84442E-05   -0.22872E-05  1555   0.567E-03    0.874E-03
RMM:   7    -0.117576622308E+04   -0.44011E-06   -0.45559E-06  1322   0.277E-03
  11 F= -.11828940E+04 E0= -.11828940E+04  d E =-.820332E-03  mag=     0.0000
       N       E                     dE             d eps       ncg     rms          rms(c)
DAV:   1    -0.117576483330E+04    0.13893E-02   -0.80615E-01  1600   0.124E+00    0.213E-01
RMM:   2    -0.117576595142E+04   -0.11181E-02   -0.13225E-02  1678   0.164E-01    0.180E-01
RMM:   3    -0.117576604940E+04   -0.97985E-04   -0.23889E-03  1618   0.702E-02    0.150E-01
RMM:   4    -0.117576600990E+04    0.39502E-04   -0.12704E-03  1588   0.483E-02    0.403E-02
RMM:   5    -0.117576602675E+04   -0.16853E-04   -0.21122E-04  1930   0.208E-02    0.319E-02
RMM:   6    -0.117576599072E+04    0.36034E-04   -0.89580E-05  1566   0.111E-02    0.185E-02
RMM:   7    -0.117576599272E+04   -0.20041E-05   -0.18006E-05  1680   0.546E-03    0.988E-03
RMM:   8    -0.117576599115E+04    0.15723E-05   -0.78708E-06  1537   0.352E-03    0.627E-03
RMM:   9    -0.117576599147E+04   -0.31980E-06   -0.44675E-06  1289   0.259E-03
  12 F= -.11828938E+04 E0= -.11828938E+04  d E =-.683591E-03  mag=    -0.0000
       N       E                     dE             d eps       ncg     rms          rms(c)
DAV:   1    -0.117576583130E+04    0.15985E-03   -0.31036E-01  1664   0.773E-01    0.131E-01
RMM:   2    -0.117576626064E+04   -0.42934E-03   -0.50702E-03  1676   0.102E-01    0.111E-01
RMM:   3    -0.117576629716E+04   -0.36523E-04   -0.90830E-04  1610   0.434E-02    0.926E-02
RMM:   4    -0.117576628197E+04    0.15188E-04   -0.50546E-04  1600   0.301E-02    0.240E-02
RMM:   5    -0.117576628678E+04   -0.48042E-05   -0.73779E-05  1898   0.125E-02    0.194E-02
RMM:   6    -0.117576627385E+04    0.12924E-04   -0.34066E-05  1564   0.688E-03    0.105E-02
RMM:   7    -0.117576627487E+04   -0.10203E-05   -0.71235E-06  1436   0.339E-03    0.585E-03
RMM:   8    -0.117576627428E+04    0.58878E-06   -0.22011E-06  1098   0.190E-03
  13 F= -.11828941E+04 E0= -.11828941E+04  d E =-.906933E-03  mag=     0.0000
       N       E                     dE             d eps       ncg     rms          rms(c)
DAV:   1    -0.117576642468E+04   -0.14981E-03   -0.48289E-02  1664   0.295E-01    0.496E-02
RMM:   2    -0.117576648690E+04   -0.62222E-04   -0.72823E-04  1654   0.377E-02    0.402E-02
RMM:   3    -0.117576649067E+04   -0.37655E-05   -0.12411E-04  1601   0.160E-02    0.321E-02
RMM:   4    -0.117576648718E+04    0.34869E-05   -0.57073E-05  1578   0.104E-02    0.736E-03
RMM:   5    -0.117576648787E+04   -0.69197E-06   -0.96264E-06  1541   0.444E-03
  14 F= -.11828943E+04 E0= -.11828943E+04  d E =-.231341E-03  mag=     0.0000
       N       E                     dE             d eps       ncg     rms          rms(c)
DAV:   1    -0.117576637543E+04    0.11175E-03   -0.43685E-01  1568   0.889E-01    0.151E-01
RMM:   2    -0.117576694415E+04   -0.56872E-03   -0.66824E-03  1658   0.114E-01    0.123E-01
RMM:   3    -0.117576698475E+04   -0.40600E-04   -0.11420E-03  1610   0.486E-02    0.985E-02
RMM:   4    -0.117576696720E+04    0.17550E-04   -0.53574E-04  1572   0.319E-02    0.228E-02
RMM:   5    -0.117576697338E+04   -0.61871E-05   -0.87941E-05  1902   0.135E-02    0.187E-02
RMM:   6    -0.117576696110E+04    0.12289E-04   -0.30905E-05  1562   0.667E-03    0.113E-02
RMM:   7    -0.117576696167E+04   -0.56894E-06   -0.72096E-06  1433   0.337E-03
  15 F= -.11828948E+04 E0= -.11828948E+04  d E =-.759999E-03  mag=     0.0000
       N       E                     dE             d eps       ncg     rms          rms(c)
DAV:   1    -0.117576478789E+04    0.21732E-02   -0.17470E+00  1536   0.178E+00    0.299E-01
RMM:   2    -0.117576705872E+04   -0.22708E-02   -0.26726E-02  1654   0.228E-01    0.242E-01
RMM:   3    -0.117576720698E+04   -0.14826E-03   -0.45869E-03  1608   0.971E-02    0.195E-01
RMM:   4    -0.117576712468E+04    0.82296E-04   -0.21854E-03  1578   0.638E-02    0.486E-02
RMM:   5    -0.117576715676E+04   -0.32080E-04   -0.35135E-04  1932   0.272E-02    0.388E-02
RMM:   6    -0.117576710066E+04    0.56096E-04   -0.15055E-04  1570   0.144E-02    0.225E-02
RMM:   7    -0.117576710472E+04   -0.40622E-05   -0.28974E-05  1666   0.694E-03    0.126E-02
RMM:   8    -0.117576710228E+04    0.24443E-05   -0.14510E-05  1546   0.462E-03    0.783E-03
RMM:   9    -0.117576710288E+04   -0.59621E-06   -0.68397E-06  1384   0.324E-03
  16 F= -.11828951E+04 E0= -.11828951E+04  d E =-.101820E-02  mag=    -0.0000
       N       E                     dE             d eps       ncg     rms          rms(c)
DAV:   1    -0.117576714892E+04   -0.46639E-04   -0.23171E-01  1664   0.636E-01    0.111E-01
RMM:   2    -0.117576744955E+04   -0.30063E-03   -0.34850E-03  1646   0.809E-02    0.894E-02
RMM:   3    -0.117576747028E+04   -0.20732E-04   -0.58178E-04  1590   0.342E-02    0.711E-02
RMM:   4    -0.117576746924E+04    0.10376E-05   -0.24575E-04  1580   0.217E-02    0.183E-02
RMM:   5    -0.117576747266E+04   -0.34218E-05   -0.39660E-05  1860   0.892E-03    0.132E-02
RMM:   6    -0.117576746681E+04    0.58563E-05   -0.13913E-05  1473   0.455E-03    0.726E-03
RMM:   7    -0.117576746677E+04    0.35063E-07   -0.39746E-06  1264   0.241E-03
  17 F= -.11828955E+04 E0= -.11828955E+04  d E =-.460375E-03  mag=    -0.0000
       N       E                     dE             d eps       ncg     rms          rms(c)
DAV:   1    -0.117576479096E+04    0.26758E-02   -0.20884E+00  1536   0.191E+00    0.332E-01
RMM:   2    -0.117576752840E+04   -0.27374E-02   -0.31680E-02  1648   0.244E-01    0.267E-01
RMM:   3    -0.117576772606E+04   -0.19766E-03   -0.53505E-03  1596   0.103E-01    0.213E-01
RMM:   4    -0.117576769501E+04    0.31044E-04   -0.20819E-03  1576   0.634E-02    0.572E-02
RMM:   5    -0.117576773737E+04   -0.42359E-04   -0.37020E-04  1924   0.272E-02    0.397E-02
RMM:   6    -0.117576768040E+04    0.56974E-04   -0.14487E-04  1562   0.142E-02    0.217E-02
RMM:   7    -0.117576768284E+04   -0.24397E-05   -0.32540E-05  1674   0.706E-03    0.128E-02
RMM:   8    -0.117576767997E+04    0.28647E-05   -0.18676E-05  1522   0.511E-03    0.769E-03
RMM:   9    -0.117576768086E+04   -0.89002E-06   -0.79945E-06  1410   0.340E-03
  18 F= -.11828961E+04 E0= -.11828961E+04  d E =-.972053E-03  mag=    -0.0000
       N       E                     dE             d eps       ncg     rms          rms(c)
DAV:   1    -0.117576798830E+04   -0.30832E-03   -0.18961E-01  1600   0.592E-01    0.104E-01
RMM:   2    -0.117576826590E+04   -0.27760E-03   -0.32957E-03  1672   0.795E-02    0.848E-02
RMM:   3    -0.117576829336E+04   -0.27456E-04   -0.60505E-04  1626   0.335E-02    0.707E-02
RMM:   4    -0.117576827704E+04    0.16312E-04   -0.22447E-04  1576   0.206E-02    0.248E-02
RMM:   5    -0.117576828614E+04   -0.90980E-05   -0.52784E-05  1683   0.101E-02    0.151E-02
RMM:   6    -0.117576828009E+04    0.60501E-05   -0.12354E-05  1538   0.465E-03    0.827E-03
RMM:   7    -0.117576827956E+04    0.52842E-06   -0.50802E-06  1350   0.277E-03
  19 F= -.11828967E+04 E0= -.11828967E+04  d E =-.686537E-03  mag=     0.0000
