       N       E                     dE             d eps       ncg     rms          rms(c)
DAV:   1     0.505313587112E+04    0.50531E+04   -0.16975E+05  1872   0.907E+02
DAV:   2     0.604074074603E+02   -0.49927E+04   -0.45366E+04  2556   0.211E+02
DAV:   3    -0.118091157510E+04   -0.12413E+04   -0.12337E+04  2268   0.116E+02
DAV:   4    -0.123810134109E+04   -0.57190E+02   -0.56841E+02  2376   0.326E+01
DAV:   5    -0.123957977658E+04   -0.14784E+01   -0.14741E+01  2268   0.488E+00    0.705E+01
RMM:   6    -0.122079312007E+04    0.18787E+02   -0.10694E+01  2143   0.540E+00    0.540E+01
RMM:   7    -0.119330886265E+04    0.27484E+02   -0.31368E+01  2083   0.712E+00    0.395E+01
RMM:   8    -0.117483673316E+04    0.18472E+02   -0.27428E+01  2070   0.937E+00    0.259E+01
RMM:   9    -0.117110552400E+04    0.37312E+01   -0.12867E+01  2086   0.666E+00    0.169E+01
RMM:  10    -0.117194141920E+04   -0.83590E+00   -0.13016E+01  2102   0.454E+00    0.104E+01
RMM:  11    -0.117186565850E+04    0.75761E-01   -0.49910E-01  1931   0.270E+00    0.793E+00
RMM:  12    -0.117131873255E+04    0.54693E+00   -0.17322E+00  2099   0.193E+00    0.418E+00
RMM:  13    -0.117127973536E+04    0.38997E-01   -0.31449E-01  2075   0.115E+00    0.306E+00
RMM:  14    -0.117122792740E+04    0.51808E-01   -0.19092E-01  2087   0.823E-01    0.884E-01
RMM:  15    -0.117122486306E+04    0.30643E-02   -0.90815E-02  2115   0.377E-01    0.504E-01
RMM:  16    -0.117122221696E+04    0.26461E-02   -0.69410E-03  2019   0.181E-01    0.349E-01
RMM:  17    -0.117122201606E+04    0.20090E-03   -0.28103E-03  1637   0.116E-01    0.258E-01
RMM:  18    -0.117122234112E+04   -0.32506E-03   -0.85080E-04  1263   0.115E-01    0.193E-01
RMM:  19    -0.117122236397E+04   -0.22853E-04   -0.39968E-04  1247   0.144E-01
   1 F= -.11784916E+04 E0= -.11784916E+04  d E =-.117849E+04  mag=     2.0062
       N       E                     dE             d eps       ncg     rms          rms(c)
DAV:   1    -0.117122048738E+04    0.18537E-02   -0.51826E-01  2016   0.127E+00    0.456E-01
RMM:   2    -0.117122172309E+04   -0.12357E-02   -0.15635E-02  2151   0.191E-01    0.458E-01
RMM:   3    -0.117122175454E+04   -0.31452E-04   -0.28197E-03  1170   0.319E-01    0.406E-01
RMM:   4    -0.117122096667E+04    0.78787E-03   -0.43952E-04  1198   0.127E-01    0.276E-01
RMM:   5    -0.117122120822E+04   -0.24155E-03   -0.59324E-03  2017   0.189E-01    0.111E-01
RMM:   6    -0.117122119017E+04    0.18043E-04   -0.57412E-04  1290   0.765E-02
   2 F= -.11784909E+04 E0= -.11784909E+04  d E =0.781428E-03  mag=     1.9987
       N       E                     dE             d eps       ncg     rms          rms(c)
DAV:   1    -0.117122348400E+04   -0.22758E-02   -0.18622E-01  2016   0.758E-01    0.193E-01
RMM:   2    -0.117122350700E+04   -0.22999E-04   -0.31126E-03  2048   0.104E-01    0.257E-01
RMM:   3    -0.117122375823E+04   -0.25123E-03   -0.16296E-03  1243   0.326E-01    0.196E-01
RMM:   4    -0.117122364512E+04    0.11311E-03   -0.14742E-05  1078   0.687E-02    0.192E-01
RMM:   5    -0.117122348656E+04    0.15856E-03    0.16374E-05  1056   0.927E-02    0.200E-01
RMM:   6    -0.117122299381E+04    0.49275E-03   -0.19042E-04  1123   0.132E-01    0.210E-01
RMM:   7    -0.117122293999E+04    0.53819E-04   -0.27912E-04  1203   0.190E-01
   3 F= -.11784924E+04 E0= -.11784924E+04  d E =-.732312E-03  mag=     2.0000
