       N       E                     dE             d eps       ncg     rms          rms(c)
DAV:   1     0.476893189995E+04    0.47689E+04   -0.17217E+05  1728   0.991E+02
DAV:   2    -0.102578479360E+02   -0.47792E+04   -0.43878E+04  2232   0.220E+02
DAV:   3    -0.117020548767E+04   -0.11599E+04   -0.11517E+04  1872   0.118E+02
DAV:   4    -0.122168239896E+04   -0.51477E+02   -0.51057E+02  1836   0.326E+01
DAV:   5    -0.122289824542E+04   -0.12158E+01   -0.12124E+01  2088   0.473E+00    0.641E+01
RMM:   6    -0.120910679410E+04    0.13791E+02   -0.29932E+01  1440   0.601E+00    0.529E+01
RMM:   7    -0.119505281107E+04    0.14054E+02   -0.59039E+00  1440   0.307E+00    0.441E+01
RMM:   8    -0.116587097107E+04    0.29182E+02   -0.48582E+01  1440   0.867E+00    0.262E+01
RMM:   9    -0.115750574464E+04    0.83652E+01   -0.16944E+01  1440   0.499E+00    0.187E+01
RMM:  10    -0.115616925710E+04    0.13365E+01   -0.80532E+00  1440   0.356E+00    0.124E+01
RMM:  11    -0.115677624759E+04   -0.60699E+00   -0.32352E+00  1445   0.229E+00    0.684E+00
RMM:  12    -0.115635221347E+04    0.42403E+00   -0.15249E+00  1440   0.142E+00    0.348E+00
RMM:  13    -0.115615715554E+04    0.19506E+00   -0.37115E-01  1440   0.756E-01    0.127E+00
RMM:  14    -0.115612171221E+04    0.35443E-01   -0.49455E-02  1476   0.239E-01    0.817E-01
RMM:  15    -0.115611837864E+04    0.33336E-02   -0.21023E-02  1455   0.166E-01    0.486E-01
RMM:  16    -0.115611661664E+04    0.17620E-02   -0.13085E-02  1444   0.136E-01    0.257E-01
RMM:  17    -0.115611668223E+04   -0.65591E-04   -0.17700E-03  1429   0.520E-02    0.170E-01
RMM:  18    -0.115611669614E+04   -0.13915E-04   -0.12123E-03  1276   0.405E-02    0.959E-02
RMM:  19    -0.115611684895E+04   -0.15281E-03   -0.14969E-04   938   0.168E-02    0.660E-02
RMM:  20    -0.115611681904E+04    0.29913E-04   -0.15578E-04   916   0.161E-02
   1 F= -.11632003E+04 E0= -.11632000E+04  d E =-.116320E+04  mag=    -0.9979
       N       E                     dE             d eps       ncg     rms          rms(c)
DAV:   1    -0.115611709848E+04   -0.24953E-03   -0.57229E-01  1476   0.112E+00    0.242E-01
RMM:   2    -0.115611775730E+04   -0.65882E-03   -0.96641E-03  1440   0.151E-01    0.229E-01
RMM:   3    -0.115611758600E+04    0.17130E-03   -0.65895E-04  1147   0.333E-02    0.204E-01
RMM:   4    -0.115611706689E+04    0.51911E-03   -0.16433E-03  1440   0.514E-02    0.921E-02
RMM:   5    -0.115611706873E+04   -0.18419E-05   -0.26467E-04   974   0.222E-02
   2 F= -.11632006E+04 E0= -.11632001E+04  d E =-.305967E-03  mag=    -0.9997
       N       E                     dE             d eps       ncg     rms          rms(c)
DAV:   1    -0.115611795759E+04   -0.89070E-03   -0.12163E-01  1620   0.515E-01    0.106E-01
RMM:   2    -0.115611803086E+04   -0.73269E-04   -0.17387E-03  1431   0.669E-02    0.998E-02
RMM:   3    -0.115611796092E+04    0.69937E-04   -0.10209E-04   889   0.146E-02
   3 F= -.11632015E+04 E0= -.11632011E+04  d E =-.117099E-02  mag=    -1.0001
       N       E                     dE             d eps       ncg     rms          rms(c)
DAV:   1    -0.115611640900E+04    0.16219E-02   -0.38160E-01  1440   0.103E+00    0.183E-01
RMM:   2    -0.115611691547E+04   -0.50646E-03   -0.83961E-03  1440   0.151E-01    0.162E-01
RMM:   3    -0.115611663866E+04    0.27681E-03   -0.49614E-04  1125   0.325E-02    0.137E-01
RMM:   4    -0.115611616228E+04    0.47638E-03   -0.14059E-03  1432   0.468E-02    0.645E-02
RMM:   5    -0.115611613338E+04    0.28906E-04   -0.14033E-04   889   0.173E-02
   4 F= -.11631994E+04 E0= -.11631989E+04  d E =0.206165E-02  mag=    -1.0000
       N       E                     dE             d eps       ncg     rms          rms(c)
DAV:   1    -0.115611840819E+04   -0.22459E-02   -0.20392E-01  1584   0.757E-01    0.120E-01
RMM:   2    -0.115611869126E+04   -0.28307E-03   -0.46526E-03  1440   0.112E-01    0.109E-01
RMM:   3    -0.115611856245E+04    0.12881E-03   -0.22401E-04   977   0.228E-02    0.960E-02
RMM:   4    -0.115611829627E+04    0.26618E-03   -0.89949E-04  1411   0.373E-02    0.434E-02
RMM:   5    -0.115611828808E+04    0.81976E-05   -0.55329E-05   858   0.115E-02
   5 F= -.11632018E+04 E0= -.11632013E+04  d E =-.260925E-03  mag=    -1.0000
