       N       E                     dE             d eps       ncg     rms          rms(c)
DAV:   1     0.462991461122E+04    0.46299E+04   -0.17623E+05  1888   0.937E+02
DAV:   2    -0.949560197419E+02   -0.47249E+04   -0.43047E+04  2432   0.213E+02
DAV:   3    -0.118930780147E+04   -0.10944E+04   -0.10878E+04  2016   0.110E+02
DAV:   4    -0.123643269483E+04   -0.47125E+02   -0.46856E+02  1920   0.316E+01
DAV:   5    -0.123781940196E+04   -0.13867E+01   -0.13837E+01  2272   0.498E+00    0.759E+01
RMM:   6    -0.122370184653E+04    0.14118E+02   -0.99387E+00  1559   0.389E+00    0.567E+01
RMM:   7    -0.119302409089E+04    0.30678E+02   -0.80142E+01  1597   0.101E+01    0.390E+01
RMM:   8    -0.118959294203E+04    0.34311E+01   -0.91812E+00  1586   0.431E+00    0.335E+01
RMM:   9    -0.118055146535E+04    0.90415E+01   -0.82667E+00  1540   0.381E+00    0.278E+01
RMM:  10    -0.116902240605E+04    0.11529E+02   -0.34074E+01  1762   0.748E+00    0.252E+01
RMM:  11    -0.117119177472E+04   -0.21694E+01   -0.31446E+00  1711   0.282E+00    0.229E+01
RMM:  12    -0.117284124994E+04   -0.16495E+01   -0.27330E+00  1588   0.241E+00    0.107E+01
RMM:  13    -0.117289293593E+04   -0.51686E-01   -0.62120E-01  1688   0.115E+00    0.825E+00
RMM:  14    -0.117299379645E+04   -0.10086E+00   -0.17482E-01  1562   0.618E-01    0.566E+00
RMM:  15    -0.117294249430E+04    0.51302E-01   -0.23339E-01  1569   0.641E-01    0.311E+00
RMM:  16    -0.117288498326E+04    0.57511E-01   -0.52447E-01  1632   0.850E-01    0.170E+00
RMM:  17    -0.117287120618E+04    0.13777E-01   -0.57233E-02  1547   0.352E-01    0.124E+00
RMM:  18    -0.117288268867E+04   -0.11482E-01   -0.15915E-02  1679   0.184E-01    0.114E+00
RMM:  19    -0.117287960624E+04    0.30824E-02   -0.22967E-03  1672   0.853E-02    0.990E-01
RMM:  20    -0.117287378336E+04    0.58229E-02   -0.54841E-03  1624   0.869E-02    0.665E-01
RMM:  21    -0.117287098733E+04    0.27960E-02   -0.21825E-03  1611   0.535E-02    0.478E-01
RMM:  22    -0.117287097059E+04    0.16746E-04   -0.43553E-04  1768   0.267E-02    0.430E-01
RMM:  23    -0.117287064856E+04    0.32203E-03   -0.54050E-04  1657   0.257E-02    0.310E-01
RMM:  24    -0.117287008588E+04    0.56268E-03   -0.55824E-04  1675   0.257E-02    0.201E-01
RMM:  25    -0.117287015734E+04   -0.71457E-04   -0.35722E-04  1668   0.221E-02    0.112E-01
RMM:  26    -0.117287014898E+04    0.83612E-05   -0.11940E-04  1786   0.134E-02    0.587E-02
RMM:  27    -0.117287014560E+04    0.33787E-05   -0.40235E-05  1608   0.740E-03    0.285E-02
RMM:  28    -0.117287015605E+04   -0.10456E-04   -0.10274E-05  1463   0.468E-03    0.286E-02
RMM:  29    -0.117287014826E+04    0.77973E-05   -0.91736E-06  1292   0.405E-03    0.120E-02
RMM:  30    -0.117287014852E+04   -0.26436E-06   -0.32557E-06  1127   0.239E-03
   1 F= -.11799319E+04 E0= -.11799276E+04  d E =-.117993E+04  mag=    -0.8733
       N       E                     dE             d eps       ncg     rms          rms(c)
DAV:   1    -0.117286738628E+04    0.27620E-02   -0.37537E-01  1664   0.113E+00    0.177E-01
RMM:   2    -0.117286840817E+04   -0.10219E-02   -0.12319E-02  1551   0.176E-01    0.186E-01
RMM:   3    -0.117286863163E+04   -0.22346E-03   -0.26297E-03  1891   0.758E-02    0.178E-01
RMM:   4    -0.117286854112E+04    0.90514E-04   -0.34773E-04  1842   0.273E-02    0.171E-01
RMM:   5    -0.117286821951E+04    0.32161E-03   -0.17635E-03  1552   0.486E-02    0.105E-01
RMM:   6    -0.117286830743E+04   -0.87921E-04   -0.70691E-04  1568   0.343E-02    0.896E-02
RMM:   7    -0.117286817142E+04    0.13602E-03   -0.99025E-05  1592   0.153E-02    0.747E-02
RMM:   8    -0.117286814794E+04    0.23482E-04   -0.87158E-05  1579   0.112E-02    0.524E-02
RMM:   9    -0.117286814683E+04    0.11022E-05   -0.27246E-05  1780   0.736E-03    0.423E-02
RMM:  10    -0.117286813239E+04    0.14445E-04   -0.47289E-05  1555   0.815E-03    0.245E-02
RMM:  11    -0.117286813227E+04    0.12179E-06   -0.73580E-06  1509   0.430E-03
   2 F= -.11799305E+04 E0= -.11799262E+04  d E =0.143049E-02  mag=    -0.8748
       N       E                     dE             d eps       ncg     rms          rms(c)
DAV:   1    -0.117287034646E+04   -0.22141E-02   -0.16116E-01  1824   0.739E-01    0.115E-01
RMM:   2    -0.117287065588E+04   -0.30942E-03   -0.41795E-03  1538   0.111E-01    0.121E-01
RMM:   3    -0.117287070977E+04   -0.53896E-04   -0.79432E-04  1808   0.461E-02    0.113E-01
RMM:   4    -0.117287064523E+04    0.64544E-04   -0.14326E-04  1760   0.181E-02    0.105E-01
RMM:   5    -0.117287050971E+04    0.13552E-03   -0.78474E-04  1552   0.337E-02    0.550E-02
RMM:   6    -0.117287051823E+04   -0.85213E-05   -0.15342E-04  1731   0.180E-02    0.450E-02
RMM:   7    -0.117287048998E+04    0.28251E-04   -0.27826E-05  1567   0.761E-03    0.341E-02
RMM:   8    -0.117287048812E+04    0.18644E-05   -0.26241E-05  1617   0.628E-03    0.241E-02
RMM:   9    -0.117287048815E+04   -0.39203E-07   -0.49866E-06  1405   0.354E-03
   3 F= -.11799325E+04 E0= -.11799281E+04  d E =-.540989E-03  mag=    -0.8737
