       N       E                     dE             d eps       ncg     rms          rms(c)
DAV:   1     0.504914996503E+04    0.50491E+04   -0.17659E+05  1872   0.930E+02
DAV:   2    -0.296118203946E+02   -0.50788E+04   -0.46541E+04  2556   0.212E+02
DAV:   3    -0.119944812664E+04   -0.11698E+04   -0.11647E+04  2196   0.112E+02
DAV:   4    -0.124733024248E+04   -0.47882E+02   -0.47598E+02  2052   0.287E+01
DAV:   5    -0.124877754662E+04   -0.14473E+01   -0.14436E+01  2520   0.424E+00    0.638E+01
RMM:   6    -0.123570736419E+04    0.13070E+02   -0.76678E+00  1589   0.318E+00    0.521E+01
RMM:   7    -0.119273825628E+04    0.42969E+02   -0.74136E+01  1590   0.968E+00    0.289E+01
RMM:   8    -0.118329422858E+04    0.94440E+01   -0.39801E+01  1595   0.717E+00    0.142E+01
RMM:   9    -0.118413397599E+04   -0.83975E+00   -0.94621E+00  1592   0.359E+00    0.932E+00
RMM:  10    -0.118343816218E+04    0.69581E+00   -0.14366E+00  1595   0.139E+00    0.444E+00
RMM:  11    -0.118315296036E+04    0.28520E+00   -0.86892E-01  1588   0.104E+00    0.191E+00
RMM:  12    -0.118308413990E+04    0.68820E-01   -0.25679E-01  1594   0.526E-01    0.413E-01
RMM:  13    -0.118308544547E+04   -0.13056E-02   -0.26129E-02  1669   0.180E-01    0.270E-01
RMM:  14    -0.118308421252E+04    0.12330E-02   -0.66931E-03  1612   0.902E-02    0.156E-01
RMM:  15    -0.118308461260E+04   -0.40008E-03   -0.14020E-03  1578   0.416E-02    0.108E-01
RMM:  16    -0.118308470657E+04   -0.93968E-04   -0.67013E-04  1367   0.293E-02
   1 F= -.11902837E+04 E0= -.11902767E+04  d E =-.119028E+04  mag=    -0.7788
       N       E                     dE             d eps       ncg     rms          rms(c)
DAV:   1    -0.118308364428E+04    0.96832E-03   -0.24378E+00  1656   0.204E+00    0.649E-01
RMM:   2    -0.118308669162E+04   -0.30473E-02   -0.47318E-02  1669   0.265E-01    0.613E-01
RMM:   3    -0.118308587641E+04    0.81522E-03   -0.31731E-03  1724   0.558E-02    0.554E-01
RMM:   4    -0.118308704050E+04   -0.11641E-02   -0.84596E-03  1591   0.923E-02    0.198E-01
RMM:   5    -0.118308642581E+04    0.61469E-03   -0.49150E-04  1227   0.225E-02    0.933E-02
RMM:   6    -0.118308623138E+04    0.19443E-03   -0.76306E-04  1368   0.237E-02    0.373E-02
RMM:   7    -0.118308623703E+04   -0.56526E-05   -0.73722E-05  1032   0.988E-03
   2 F= -.11902862E+04 E0= -.11902796E+04  d E =-.248840E-02  mag=    -0.7814
       N       E                     dE             d eps       ncg     rms          rms(c)
DAV:   1    -0.118308819349E+04   -0.19621E-02   -0.35411E-01  1728   0.777E-01    0.246E-01
RMM:   2    -0.118308844493E+04   -0.25144E-03   -0.56839E-03  1599   0.950E-02    0.230E-01
RMM:   3    -0.118308831294E+04    0.13199E-03   -0.35797E-04  1167   0.198E-02    0.200E-01
RMM:   4    -0.118308857102E+04   -0.25808E-03   -0.11773E-03  1498   0.348E-02    0.687E-02
RMM:   5    -0.118308844551E+04    0.12551E-03   -0.14220E-04  1077   0.119E-02    0.254E-02
RMM:   6    -0.118308843834E+04    0.71755E-05   -0.52144E-05   986   0.728E-03
   3 F= -.11902880E+04 E0= -.11902815E+04  d E =-.431751E-02  mag=    -0.7824
       N       E                     dE             d eps       ncg     rms          rms(c)
DAV:   1    -0.118308762094E+04    0.82457E-03   -0.20003E+00  1584   0.175E+00    0.504E-01
RMM:   2    -0.118308943181E+04   -0.18109E-02   -0.34712E-02  1609   0.223E-01    0.445E-01
RMM:   3    -0.118308854918E+04    0.88263E-03   -0.20265E-03  1641   0.460E-02    0.370E-01
RMM:   4    -0.118308926188E+04   -0.71269E-03   -0.52636E-03  1604   0.756E-02    0.154E-01
RMM:   5    -0.118308900503E+04    0.25684E-03   -0.46402E-04  1191   0.209E-02    0.738E-02
RMM:   6    -0.118308902353E+04   -0.18500E-04   -0.25123E-04  1097   0.151E-02
   4 F= -.11902896E+04 E0= -.11902830E+04  d E =-.155436E-02  mag=    -0.7832
       N       E                     dE             d eps       ncg     rms          rms(c)
DAV:   1    -0.118309011857E+04   -0.11135E-02   -0.31604E-01  1728   0.697E-01    0.201E-01
RMM:   2    -0.118309031447E+04   -0.19590E-03   -0.57353E-03  1591   0.887E-02    0.179E-01
RMM:   3    -0.118309009641E+04    0.21806E-03   -0.27084E-04  1135   0.190E-02    0.148E-01
RMM:   4    -0.118309022183E+04   -0.12542E-03   -0.10326E-03  1560   0.342E-02    0.661E-02
RMM:   5    -0.118309018672E+04    0.35113E-04   -0.10090E-04  1048   0.107E-02
   5 F= -.11902904E+04 E0= -.11902838E+04  d E =-.232956E-02  mag=    -0.7831
       N       E                     dE             d eps       ncg     rms          rms(c)
DAV:   1    -0.118309039779E+04   -0.17596E-03   -0.50070E-01  1692   0.999E-01    0.192E-01
RMM:   2    -0.118309088782E+04   -0.49003E-03   -0.97741E-03  1597   0.134E-01    0.165E-01
RMM:   3    -0.118309057291E+04    0.31491E-03   -0.48103E-04  1239   0.264E-02    0.138E-01
RMM:   4    -0.118309057411E+04   -0.12000E-05   -0.19838E-03  1589   0.481E-02    0.510E-02
RMM:   5    -0.118309053593E+04    0.38176E-04   -0.47135E-05  1019   0.988E-03
   6 F= -.11902911E+04 E0= -.11902845E+04  d E =-.736423E-03  mag=    -0.7804
       N       E                     dE             d eps       ncg     rms          rms(c)
DAV:   1    -0.118309095047E+04   -0.37636E-03   -0.61057E-02  1728   0.348E-01    0.605E-02
RMM:   2    -0.118309100149E+04   -0.51027E-04   -0.10622E-03  1422   0.427E-02    0.507E-02
RMM:   3    -0.118309095223E+04    0.49265E-04   -0.55904E-05   977   0.104E-02
   7 F= -.11902914E+04 E0= -.11902848E+04  d E =-.101555E-02  mag=    -0.7817
       N       E                     dE             d eps       ncg     rms          rms(c)
DAV:   1    -0.118309112271E+04   -0.12122E-03   -0.35524E-01  1728   0.860E-01    0.144E-01
RMM:   2    -0.118309154422E+04   -0.42150E-03   -0.68439E-03  1584   0.114E-01    0.120E-01
RMM:   3    -0.118309142622E+04    0.11799E-03   -0.28098E-04  1168   0.220E-02    0.101E-01
RMM:   4    -0.118309156676E+04   -0.14054E-03   -0.84501E-04  1486   0.314E-02    0.383E-02
RMM:   5    -0.118309154216E+04    0.24602E-04   -0.30276E-05  1014   0.810E-03
   8 F= -.11902921E+04 E0= -.11902854E+04  d E =-.680157E-03  mag=    -0.7804
       N       E                     dE             d eps       ncg     rms          rms(c)
DAV:   1    -0.118309156311E+04    0.36489E-05   -0.67197E-03  1800   0.119E-01    0.200E-02
RMM:   2    -0.118309157192E+04   -0.88040E-05   -0.10569E-04  1019   0.145E-02
   9 F= -.11902921E+04 E0= -.11902855E+04  d E =-.696885E-03  mag=    -0.7806
