       N       E                     dE             d eps       ncg     rms          rms(c)
DAV:   1     0.473895418459E+04    0.47390E+04   -0.17328E+05  1856   0.931E+02
DAV:   2    -0.598653682833E+02   -0.47988E+04   -0.43495E+04  2464   0.208E+02
DAV:   3    -0.118317999219E+04   -0.11233E+04   -0.11180E+04  2016   0.110E+02
DAV:   4    -0.122946332881E+04   -0.46283E+02   -0.46014E+02  1952   0.296E+01
DAV:   5    -0.123065698754E+04   -0.11937E+01   -0.11907E+01  2272   0.441E+00    0.663E+01
RMM:   6    -0.121190067390E+04    0.18756E+02   -0.99803E+00  1577   0.367E+00    0.524E+01
RMM:   7    -0.118040066184E+04    0.31500E+02   -0.58988E+01  1587   0.873E+00    0.317E+01
RMM:   8    -0.116849242189E+04    0.11908E+02   -0.16706E+01  1551   0.559E+00    0.248E+01
RMM:   9    -0.116137512550E+04    0.71173E+01   -0.28234E+01  1577   0.668E+00    0.141E+01
RMM:  10    -0.116244469953E+04   -0.10696E+01   -0.93729E+00  1568   0.427E+00    0.832E+00
RMM:  11    -0.116205095642E+04    0.39374E+00   -0.17353E+00  1628   0.183E+00    0.644E+00
RMM:  12    -0.116164195964E+04    0.40900E+00   -0.11798E+00  1554   0.137E+00    0.335E+00
RMM:  13    -0.116202057456E+04   -0.37861E+00   -0.74405E-01  1549   0.110E+00    0.700E+00
RMM:  14    -0.116229326642E+04   -0.27269E+00   -0.14087E-01  1660   0.458E-01    0.937E+02
RMM:  15    -0.116228150297E+04    0.11763E-01   -0.17058E-01  1613   0.409E-01    0.932E+02
RMM:  16    -0.116229840455E+04   -0.16902E-01   -0.14422E-01  1612   0.233E-01    0.925E+02
RMM:  17    -0.116228333520E+04    0.15069E-01   -0.11042E-01  1698   0.349E-01    0.842E+02
RMM:  18    -0.116218258646E+04    0.10075E+00   -0.13480E-01  1760   0.399E-01    0.501E+02
RMM:  19    -0.116217224452E+04    0.10342E-01   -0.25271E-02  1579   0.202E-01    0.319E+02
RMM:  20    -0.116216124241E+04    0.11002E-01   -0.19842E-02  1625   0.153E-01    0.255E+02
RMM:  21    -0.116212905346E+04    0.32189E-01   -0.14373E-02  1666   0.135E-01    0.232E+02
RMM:  22    -0.116213859327E+04   -0.95398E-02   -0.24403E-03  1760   0.577E-02    0.250E+02
RMM:  23    -0.116214160171E+04   -0.30084E-02   -0.12992E-03  1781   0.302E-02    0.234E+02
RMM:  24    -0.116215055620E+04   -0.89545E-02   -0.91330E-04  1674   0.256E-02    0.291E+02
RMM:  25    -0.116215028779E+04    0.26841E-03   -0.64067E-04  1794   0.168E-02    0.303E+02
RMM:  26    -0.116215633248E+04   -0.60447E-02   -0.84914E-04  1675   0.306E-02    0.282E+02
RMM:  27    -0.116216029495E+04   -0.39625E-02   -0.67426E-04  1691   0.265E-02    0.289E+02
RMM:  28    -0.116215026673E+04    0.10028E-01   -0.60882E-03  2283   0.873E-02    0.225E+02
RMM:  29    -0.116214389236E+04    0.63744E-02   -0.44761E-03  2291   0.683E-02    0.188E+02
RMM:  30    -0.116214147241E+04    0.24199E-02   -0.46996E-03  2362   0.658E-02    0.146E+02
RMM:  31    -0.116214701286E+04   -0.55404E-02   -0.41819E-03  2353   0.600E-02    0.110E+02
RMM:  32    -0.116215758995E+04   -0.10577E-01   -0.29919E-03  2262   0.551E-02    0.819E+01
RMM:  33    -0.116216868799E+04   -0.11098E-01   -0.26920E-03  2058   0.523E-02    0.610E+01
RMM:  34    -0.116217852978E+04   -0.98418E-02   -0.37775E-03  1969   0.574E-02    0.458E+01
RMM:  35    -0.116218678774E+04   -0.82580E-02   -0.82656E-03  2077   0.762E-02    0.338E+01
RMM:  36    -0.116218860919E+04   -0.18214E-02   -0.17663E-03  2005   0.367E-02    0.258E+01
RMM:  37    -0.116218912306E+04   -0.51386E-03   -0.62037E-04  1861   0.214E-02    0.243E+01
RMM:  38    -0.116218948025E+04   -0.35719E-03   -0.24554E-04  1726   0.147E-02    0.286E+01
RMM:  39    -0.116218966132E+04   -0.18107E-03   -0.65524E-05  1676   0.756E-03    0.320E+01
RMM:  40    -0.116218973574E+04   -0.74418E-04   -0.35474E-05  1553   0.450E-03    0.334E+01
RMM:  41    -0.116218971019E+04    0.25550E-04   -0.13311E-05  1171   0.227E-03    0.332E+01
RMM:  42    -0.116218976193E+04   -0.51741E-04   -0.16678E-05  1445   0.352E-03    0.330E+01
RMM:  43    -0.116218976791E+04   -0.59765E-05   -0.21741E-05  1576   0.408E-03    0.311E+01
RMM:  44    -0.116218974406E+04    0.23853E-04   -0.11450E-05  1282   0.260E-03    0.290E+01
RMM:  45    -0.116218971351E+04    0.30549E-04   -0.11338E-05  1338   0.303E-03    0.261E+01
RMM:  46    -0.116218966254E+04    0.50972E-04   -0.15090E-05  1391   0.357E-03    0.218E+01
RMM:  47    -0.116218960868E+04    0.53857E-04   -0.17249E-05  1419   0.381E-03    0.170E+01
RMM:  48    -0.116218957088E+04    0.37803E-04   -0.16903E-05  1442   0.382E-03    0.127E+01
RMM:  49    -0.116218954452E+04    0.26358E-04   -0.14193E-05  1423   0.353E-03    0.918E+00
RMM:  50    -0.116218953054E+04    0.13981E-04   -0.10138E-05  1321   0.304E-03    0.649E+00
RMM:  51    -0.116218952449E+04    0.60487E-05   -0.68239E-06  1242   0.256E-03    0.457E+00
RMM:  52    -0.116218952199E+04    0.24938E-05   -0.43430E-06  1172   0.207E-03    0.318E+00
RMM:  53    -0.116218952135E+04    0.64397E-06   -0.25910E-06  1111   0.162E-03
   1 F= -.11621895E+04 E0= -.11621880E+04  d E =-.116219E+04  mag=     1.9996
       N       E                     dE             d eps       ncg     rms          rms(c)
DAV:   1    -0.116205514589E+04    0.13438E+00   -0.24152E+01  1664   0.739E+00    0.140E+01
RMM:   2    -0.116213407454E+04   -0.78929E-01   -0.88089E-01  1681   0.120E+00    0.262E+01
RMM:   3    -0.116215279549E+04   -0.18721E-01   -0.17546E-01  1799   0.483E-01    0.558E+01
RMM:   4    -0.116215647517E+04   -0.36797E-02   -0.36032E-02  2045   0.196E-01    0.411E+01
RMM:   5    -0.116216525992E+04   -0.87847E-02   -0.75300E-03  1637   0.102E-01    0.324E+02
RMM:   6    -0.116215527965E+04    0.99803E-02   -0.17561E-03  1614   0.582E-02    0.141E+02
RMM:   7    -0.116216916687E+04   -0.13887E-01   -0.34964E-03  1615   0.666E-02    0.407E+02
RMM:   8    -0.116215794620E+04    0.11221E-01   -0.80111E-04  1603   0.412E-02    0.256E+02
RMM:   9    -0.116216721472E+04   -0.92685E-02   -0.17781E-03  1639   0.470E-02    0.406E+02
RMM:  10    -0.116216148282E+04    0.57319E-02   -0.35199E-04  1677   0.278E-02    0.340E+02
RMM:  11    -0.116216413292E+04   -0.26501E-02   -0.88184E-04  1685   0.334E-02    0.385E+02
RMM:  12    -0.116216077788E+04    0.33550E-02   -0.25808E-04  1626   0.208E-02    0.346E+02
RMM:  13    -0.116215835040E+04    0.24275E-02   -0.13836E-03  2070   0.423E-02    0.321E+02
RMM:  14    -0.116214749285E+04    0.10858E-01   -0.13192E-02  2533   0.132E-01    0.959E+01
RMM:  15    -0.116214835333E+04   -0.86048E-03   -0.22585E-03  2204   0.567E-02    0.504E+01
RMM:  16    -0.116214774763E+04    0.60570E-03   -0.48351E-04  1756   0.248E-02    0.178E+01
RMM:  17    -0.116214692150E+04    0.82613E-03   -0.58734E-04  1786   0.247E-02    0.450E+00
RMM:  18    -0.116214589772E+04    0.10238E-02   -0.20272E-03  2215   0.460E-02    0.135E+00
RMM:  19    -0.116214572379E+04    0.17393E-03   -0.24735E-03  2300   0.520E-02    0.387E+00
RMM:  20    -0.116214593739E+04   -0.21360E-03   -0.24383E-04  1722   0.184E-02    0.129E+01
RMM:  21    -0.116214596267E+04   -0.25278E-04   -0.50674E-05  1674   0.921E-03    0.140E+01
RMM:  22    -0.116214592943E+04    0.33235E-04   -0.12035E-04  1693   0.106E-02    0.106E+01
RMM:  23    -0.116214591450E+04    0.14934E-04   -0.10638E-05  1494   0.420E-03    0.825E+00
RMM:  24    -0.116214590538E+04    0.91170E-05   -0.37241E-06  1160   0.233E-03    0.632E+00
RMM:  25    -0.116214590030E+04    0.50810E-05   -0.28560E-06  1138   0.190E-03    0.455E+00
RMM:  26    -0.116214589872E+04    0.15858E-05   -0.20635E-06  1108   0.161E-03    0.310E+00
RMM:  27    -0.116214589894E+04   -0.22310E-06   -0.11750E-06  1046   0.128E-03
   2 F= -.11621459E+04 E0= -.11621429E+04  d E =0.436224E-01  mag=     2.0001
       N       E                     dE             d eps       ncg     rms          rms(c)
DAV:   1    -0.116218747770E+04   -0.41579E-01   -0.89140E+00  1760   0.455E+00    0.512E+01
RMM:   2    -0.116221727911E+04   -0.29801E-01   -0.32264E-01  1688   0.738E-01    0.484E+01
RMM:   3    -0.116222312823E+04   -0.58491E-02   -0.57067E-02  1785   0.294E-01    0.396E+01
RMM:   4    -0.116222386668E+04   -0.73845E-03   -0.13535E-02  1989   0.122E-01    0.327E+01
RMM:   5    -0.116222219606E+04    0.16706E-02   -0.23958E-03  1587   0.583E-02    0.258E+01
RMM:   6    -0.116222283948E+04   -0.64342E-03   -0.23242E-02  1633   0.171E-01    0.806E+01
RMM:   7    -0.116222066287E+04    0.21766E-02   -0.21864E-03  1594   0.685E-02    0.322E+00
RMM:   8    -0.116222114202E+04   -0.47915E-03   -0.86506E-04  1635   0.381E-02    0.242E+01
RMM:   9    -0.116222081425E+04    0.32777E-03   -0.26044E-04  1639   0.207E-02    0.162E+01
RMM:  10    -0.116222062699E+04    0.18726E-03   -0.31930E-04  1619   0.188E-02    0.117E+01
RMM:  11    -0.116222047259E+04    0.15441E-03   -0.47188E-04  1673   0.228E-02    0.254E+00
RMM:  12    -0.116222045778E+04    0.14805E-04   -0.10207E-04  1662   0.125E-02    0.287E-01
RMM:  13    -0.116222044308E+04    0.14696E-04   -0.39992E-05  1625   0.809E-03    0.169E+00
RMM:  14    -0.116222043482E+04    0.82653E-05   -0.42265E-05  1569   0.770E-03    0.178E+00
RMM:  15    -0.116222043277E+04    0.20474E-05   -0.22971E-05  1558   0.606E-03    0.993E-01
RMM:  16    -0.116222043261E+04    0.16091E-06   -0.53054E-06  1367   0.315E-03
   3 F= -.11622204E+04 E0= -.11622185E+04  d E =-.309113E-01  mag=     2.0000
       N       E                     dE             d eps       ncg     rms          rms(c)
DAV:   1    -0.116221386519E+04    0.65676E-02   -0.36036E+00  1632   0.312E+00    0.265E+00
RMM:   2    -0.116222221384E+04   -0.83487E-02   -0.98757E-02  1644   0.479E-01    0.445E+00
RMM:   3    -0.116222374479E+04   -0.15310E-02   -0.18870E-02  1700   0.196E-01    0.520E+00
RMM:   4    -0.116222397025E+04   -0.22545E-03   -0.38414E-03  2041   0.828E-02    0.577E+00
RMM:   5    -0.116222344021E+04    0.53003E-03   -0.57346E-04  1656   0.327E-02    0.825E+00
RMM:   6    -0.116222347752E+04   -0.37307E-04   -0.37767E-04  1662   0.239E-02    0.793E+00
RMM:   7    -0.116222423631E+04   -0.75879E-03   -0.41191E-03  1989   0.693E-02    0.280E+01
RMM:   8    -0.116222360495E+04    0.63136E-03   -0.25069E-04  1584   0.244E-02    0.278E+01
RMM:   9    -0.116222037775E+04    0.32272E-02   -0.12463E-02  2425   0.114E-01    0.168E+01
RMM:  10    -0.116222051611E+04   -0.13836E-03   -0.70896E-04  1659   0.366E-02    0.161E+01
RMM:  11    -0.116222077289E+04   -0.25678E-03   -0.11858E-03  1786   0.398E-02    0.931E+00
RMM:  12    -0.116222062967E+04    0.14321E-03   -0.36574E-04  1606   0.230E-02    0.693E+00
RMM:  13    -0.116222050625E+04    0.12342E-03   -0.33317E-04  1573   0.225E-02    0.212E+00
RMM:  14    -0.116222050746E+04   -0.12128E-05   -0.11639E-04  1573   0.140E-02    0.267E-01
RMM:  15    -0.116222050484E+04    0.26202E-05   -0.16293E-05  1606   0.594E-03    0.827E-02
RMM:  16    -0.116222050436E+04    0.48032E-06   -0.36536E-05  1551   0.662E-03    0.122E-01
RMM:  17    -0.116222050529E+04   -0.92246E-06   -0.58192E-06  1462   0.351E-03
   4 F= -.11622205E+04 E0= -.11622181E+04  d E =-.726752E-04  mag=     2.0000
       N       E                     dE             d eps       ncg     rms          rms(c)
DAV:   1    -0.116222574451E+04   -0.52401E-02   -0.90145E-01  1632   0.156E+00    0.479E-01
RMM:   2    -0.116222783582E+04   -0.20913E-02   -0.24669E-02  1645   0.240E-01    0.147E+00
RMM:   3    -0.116222829392E+04   -0.45811E-03   -0.48627E-03  1701   0.988E-02    0.154E+00
RMM:   4    -0.116222828374E+04    0.10185E-04   -0.80263E-04  1988   0.399E-02    0.407E+00
RMM:   5    -0.116222796578E+04    0.31795E-03   -0.26640E-04  1565   0.218E-02    0.732E+00
RMM:   6    -0.116222795334E+04    0.12447E-04   -0.68375E-05  1788   0.112E-02    0.774E+00
RMM:   7    -0.116222802490E+04   -0.71566E-04   -0.17311E-05  1542   0.517E-03    0.787E+00
RMM:   8    -0.116222767327E+04    0.35163E-03   -0.14756E-03  2385   0.381E-02    0.672E+00
RMM:   9    -0.116222749333E+04    0.17994E-03   -0.28812E-04  1950   0.196E-02    0.594E+00
RMM:  10    -0.116222752575E+04   -0.32418E-04   -0.57994E-04  2147   0.285E-02    0.448E+00
RMM:  11    -0.116222748211E+04    0.43638E-04   -0.24244E-04  1874   0.171E-02    0.276E+00
RMM:  12    -0.116222750818E+04   -0.26070E-04   -0.20589E-04  1756   0.167E-02    0.153E-01
RMM:  13    -0.116222748000E+04    0.28183E-04   -0.30493E-05  1535   0.706E-03    0.207E-01
RMM:  14    -0.116222746793E+04    0.12068E-04   -0.10706E-04  1668   0.105E-02    0.384E-01
RMM:  15    -0.116222746724E+04    0.68500E-06   -0.80026E-06  1491   0.454E-03
   5 F= -.11622275E+04 E0= -.11622253E+04  d E =-.703463E-02  mag=     2.0000
       N       E                     dE             d eps       ncg     rms          rms(c)
DAV:   1    -0.116223047379E+04   -0.30059E-02   -0.14817E+00  1664   0.200E+00    0.510E+00
RMM:   2    -0.116223201501E+04   -0.15412E-02   -0.23575E-02  1558   0.265E-01    0.125E+00
RMM:   3    -0.116223178472E+04    0.23029E-03   -0.48834E-03  1608   0.112E-01    0.143E+00
RMM:   4    -0.116223137844E+04    0.40628E-03   -0.11214E-03  1730   0.518E-02    0.587E-01
RMM:   5    -0.116223117328E+04    0.20516E-03   -0.22392E-04  1731   0.223E-02    0.159E+00
RMM:   6    -0.116223116678E+04    0.65003E-05   -0.59901E-05  1820   0.104E-02    0.286E-01
RMM:   7    -0.116223054491E+04    0.62187E-03   -0.17706E-03  2152   0.493E-02    0.552E-01
RMM:   8    -0.116223055672E+04   -0.11805E-04   -0.13858E-04  1585   0.156E-02    0.105E+00
RMM:   9    -0.116223056370E+04   -0.69833E-05   -0.54093E-05  1606   0.963E-03    0.373E-01
RMM:  10    -0.116223055667E+04    0.70328E-05   -0.10515E-05  1565   0.463E-03    0.645E-01
RMM:  11    -0.116223054396E+04    0.12711E-04   -0.19233E-05  1543   0.477E-03    0.494E-01
RMM:  12    -0.116223054200E+04    0.19531E-05   -0.13009E-05  1535   0.410E-03    0.162E-01
RMM:  13    -0.116223054003E+04    0.19683E-05   -0.32631E-06  1224   0.257E-03    0.221E-02
RMM:  14    -0.116223053949E+04    0.54865E-06   -0.33031E-06  1224   0.234E-03
   6 F= -.11622305E+04 E0= -.11622283E+04  d E =-.307224E-02  mag=     2.0000
       N       E                     dE             d eps       ncg     rms          rms(c)
DAV:   1    -0.116223122413E+04   -0.68409E-03   -0.13632E-01  1664   0.608E-01    0.184E+00
RMM:   2    -0.116223136493E+04   -0.14081E-03   -0.21730E-03  1559   0.804E-02    0.295E-01
RMM:   3    -0.116223135753E+04    0.74084E-05   -0.44210E-04  1607   0.340E-02    0.232E-01
RMM:   4    -0.116223126599E+04    0.91535E-04   -0.18279E-04  1580   0.197E-02    0.158E+00
RMM:   5    -0.116223127934E+04   -0.13351E-04   -0.28230E-05  1640   0.834E-03    0.102E+00
RMM:   6    -0.116223128017E+04   -0.82240E-06   -0.70727E-06  1433   0.363E-03
   7 F= -.11622313E+04 E0= -.11622291E+04  d E =-.381292E-02  mag=     2.0000
       N       E                     dE             d eps       ncg     rms          rms(c)
DAV:   1    -0.116223236377E+04   -0.10844E-02   -0.13187E+00  1600   0.191E+00    0.429E+00
RMM:   2    -0.116223418745E+04   -0.18237E-02   -0.21990E-02  1625   0.249E-01    0.686E-01
RMM:   3    -0.116223449384E+04   -0.30639E-03   -0.51155E-03  1661   0.108E-01    0.168E+00
RMM:   4    -0.116223603089E+04   -0.15371E-02   -0.33635E-03  1599   0.745E-02    0.540E+00
RMM:   5    -0.116223413738E+04    0.18935E-02   -0.75817E-03  1675   0.103E-01    0.318E+00
RMM:   6    -0.116223418181E+04   -0.44430E-04   -0.50664E-04  1597   0.362E-02    0.752E-01
RMM:   7    -0.116223418619E+04   -0.43782E-05   -0.13567E-04  1805   0.161E-02    0.904E-01
RMM:   8    -0.116223417927E+04    0.69177E-05   -0.10721E-04  1580   0.120E-02    0.219E-01
RMM:   9    -0.116223418447E+04   -0.51991E-05   -0.37577E-05  1547   0.841E-03    0.247E-01
RMM:  10    -0.116223418386E+04    0.61234E-06   -0.69431E-06  1522   0.386E-03
   8 F= -.11622342E+04 E0= -.11622319E+04  d E =-.290370E-02  mag=     2.0000
       N       E                     dE             d eps       ncg     rms          rms(c)
DAV:   1    -0.116223424270E+04   -0.58224E-04   -0.27360E-02  1664   0.275E-01    0.569E-01
RMM:   2    -0.116223427598E+04   -0.33281E-04   -0.43897E-04  1621   0.353E-02    0.148E-01
RMM:   3    -0.116223428071E+04   -0.47327E-05   -0.98399E-05  1650   0.153E-02    0.154E-01
RMM:   4    -0.116223427978E+04    0.93654E-06   -0.22270E-05  1770   0.673E-03    0.153E-01
RMM:   5    -0.116223427377E+04    0.60002E-05   -0.63011E-06  1482   0.360E-03    0.128E-01
RMM:   6    -0.116223427764E+04   -0.38687E-05   -0.95702E-05  2122   0.112E-02    0.761E-01
RMM:   7    -0.116223426996E+04    0.76861E-05   -0.12827E-05  1529   0.463E-03    0.869E-02
RMM:   8    -0.116223426980E+04    0.15853E-06   -0.16255E-06  1038   0.172E-03
   9 F= -.11622343E+04 E0= -.11622319E+04  d E =-.298963E-02  mag=     2.0000
       N       E                     dE             d eps       ncg     rms          rms(c)
DAV:   1    -0.116223456655E+04   -0.29659E-03   -0.83804E-01  1664   0.154E+00    0.480E+00
RMM:   2    -0.116223600372E+04   -0.14372E-02   -0.17419E-02  1642   0.213E-01    0.307E+00
RMM:   3    -0.116223630219E+04   -0.29847E-03   -0.38263E-03  1670   0.911E-02    0.564E-01
RMM:   4    -0.116223614848E+04    0.15371E-03   -0.84718E-04  1665   0.430E-02    0.407E-01
RMM:   5    -0.116223613128E+04    0.17198E-04   -0.18591E-04  1771   0.192E-02    0.304E-01
RMM:   6    -0.116223610385E+04    0.27429E-04   -0.13264E-04  1549   0.160E-02    0.437E-01
RMM:   7    -0.116223611046E+04   -0.66137E-05   -0.16507E-04  1561   0.165E-02    0.385E-01
RMM:   8    -0.116223611136E+04   -0.89730E-06   -0.22825E-05  1637   0.713E-03    0.367E-01
RMM:   9    -0.116223611017E+04    0.11903E-05   -0.81164E-06  1482   0.382E-03    0.261E-01
RMM:  10    -0.116223611016E+04    0.83019E-08   -0.17899E-06  1052   0.189E-03
  10 F= -.11622361E+04 E0= -.11622338E+04  d E =-.184036E-02  mag=     2.0000
       N       E                     dE             d eps       ncg     rms          rms(c)
DAV:   1    -0.116223613600E+04   -0.25833E-04   -0.19963E-02  1664   0.237E-01    0.779E-01
RMM:   2    -0.116223616998E+04   -0.33974E-04   -0.41189E-04  1645   0.329E-02    0.477E-01
RMM:   3    -0.116223617636E+04   -0.63819E-05   -0.88115E-05  1665   0.141E-02    0.980E-02
RMM:   4    -0.116223617134E+04    0.50162E-05   -0.20093E-05  1632   0.662E-03    0.427E-02
RMM:   5    -0.116223617024E+04    0.11006E-05   -0.42742E-06  1301   0.305E-03    0.723E-02
RMM:   6    -0.116223616928E+04    0.96099E-06   -0.25329E-06  1128   0.230E-03
  11 F= -.11622362E+04 E0= -.11622338E+04  d E =-.189948E-02  mag=     2.0000
       N       E                     dE             d eps       ncg     rms          rms(c)
DAV:   1    -0.116223632253E+04   -0.15229E-03   -0.54833E-01  1536   0.123E+00    0.255E+00
RMM:   2    -0.116223707671E+04   -0.75418E-03   -0.95286E-03  1616   0.166E-01    0.126E+00
RMM:   3    -0.116223721756E+04   -0.14085E-03   -0.21263E-03  1653   0.724E-02    0.228E-01
RMM:   4    -0.116223706985E+04    0.14771E-03   -0.64170E-04  1618   0.371E-02    0.527E-01
RMM:   5    -0.116223706983E+04    0.16487E-07   -0.11511E-04  1820   0.157E-02    0.262E-01
RMM:   6    -0.116223708063E+04   -0.10803E-04   -0.27940E-05  1537   0.661E-03    0.115E-01
RMM:   7    -0.116223705875E+04    0.21883E-04   -0.14985E-04  1547   0.161E-02    0.420E-02
RMM:   8    -0.116223706500E+04   -0.62546E-05   -0.43507E-05  1547   0.887E-03    0.185E-01
RMM:   9    -0.116223706363E+04    0.13731E-05   -0.47267E-06  1400   0.357E-03    0.272E-02
RMM:  10    -0.116223706369E+04   -0.61082E-07   -0.15750E-06  1050   0.185E-03
  12 F= -.11622371E+04 E0= -.11622347E+04  d E =-.894410E-03  mag=     2.0000
       N       E                     dE             d eps       ncg     rms          rms(c)
DAV:   1    -0.116223713353E+04   -0.69900E-04   -0.32823E-02  1664   0.301E-01    0.596E-01
RMM:   2    -0.116223717620E+04   -0.42669E-04   -0.56508E-04  1614   0.405E-02    0.272E-01
RMM:   3    -0.116223718292E+04   -0.67155E-05   -0.12407E-04  1643   0.176E-02    0.558E-02
RMM:   4    -0.116223717034E+04    0.12574E-04   -0.44217E-05  1615   0.961E-03    0.117E-01
RMM:   5    -0.116223717025E+04    0.87501E-07   -0.72866E-06  1498   0.402E-03
  13 F= -.11622372E+04 E0= -.11622348E+04  d E =-.100097E-02  mag=     2.0000
       N       E                     dE             d eps       ncg     rms          rms(c)
DAV:   1    -0.116223762062E+04   -0.45028E-03   -0.34752E-01  1632   0.958E-01    0.466E-01
RMM:   2    -0.116223799202E+04   -0.37140E-03   -0.47752E-03  1567   0.119E-01    0.435E-01
RMM:   3    -0.116223805018E+04   -0.58156E-04   -0.94465E-04  1627   0.505E-02    0.956E-02
RMM:   4    -0.116223800056E+04    0.49612E-04   -0.18721E-04  1692   0.220E-02    0.380E-01
RMM:   5    -0.116223796719E+04    0.33371E-04   -0.57212E-05  1611   0.112E-02    0.310E-01
RMM:   6    -0.116223794145E+04    0.25747E-04   -0.25806E-04  1584   0.193E-02    0.421E-01
RMM:   7    -0.116223794496E+04   -0.35171E-05   -0.32905E-05  1561   0.909E-03    0.277E-02
RMM:   8    -0.116223794540E+04   -0.43580E-06   -0.74208E-06  1562   0.389E-03
  14 F= -.11622379E+04 E0= -.11622356E+04  d E =-.775146E-03  mag=     2.0000
       N       E                     dE             d eps       ncg     rms          rms(c)
DAV:   1    -0.116223794615E+04   -0.11902E-05   -0.11792E-03  1696   0.564E-02    0.342E-02
RMM:   2    -0.116223794705E+04   -0.89422E-06   -0.14029E-05  1561   0.630E-03    0.270E-02
RMM:   3    -0.116223794716E+04   -0.11425E-06   -0.36257E-06  1209   0.291E-03
  15 F= -.11622379E+04 E0= -.11622356E+04  d E =-.776909E-03  mag=     2.0000
       N       E                     dE             d eps       ncg     rms          rms(c)
DAV:   1    -0.116223814031E+04   -0.19326E-03   -0.31924E-01  1536   0.916E-01    0.732E-01
RMM:   2    -0.116223861531E+04   -0.47500E-03   -0.59831E-03  1637   0.126E-01    0.139E+00
RMM:   3    -0.116223878930E+04   -0.17400E-03   -0.13334E-03  1674   0.556E-02    0.307E+00
RMM:   4    -0.116223875822E+04    0.31084E-04   -0.24546E-04  1757   0.234E-02    0.216E+00
RMM:   5    -0.116223870288E+04    0.55338E-04   -0.54375E-05  1590   0.111E-02    0.983E-01
RMM:   6    -0.116223863805E+04    0.64833E-04   -0.12187E-04  1547   0.133E-02    0.704E-02
RMM:   7    -0.116223862549E+04    0.12563E-04   -0.21399E-04  1601   0.173E-02    0.685E-01
RMM:   8    -0.116223863500E+04   -0.95096E-05   -0.36264E-05  1643   0.866E-03    0.836E-01
RMM:   9    -0.116223863718E+04   -0.21869E-05   -0.14781E-05  1539   0.477E-03    0.448E-01
RMM:  10    -0.116223863742E+04   -0.24278E-06   -0.41238E-06  1307   0.264E-03
  16 F= -.11622386E+04 E0= -.11622363E+04  d E =-.690262E-03  mag=     2.0000
