       N       E                     dE             d eps       ncg     rms          rms(c)
DAV:   1     0.459344544557E+04    0.45934E+04   -0.17913E+05  1920   0.946E+02
DAV:   2    -0.817664467017E+02   -0.46752E+04   -0.42549E+04  2400   0.208E+02
DAV:   3    -0.119447777583E+04   -0.11127E+04   -0.11079E+04  2080   0.110E+02
DAV:   4    -0.123965130977E+04   -0.45174E+02   -0.44883E+02  1920   0.289E+01
DAV:   5    -0.124078925167E+04   -0.11379E+01   -0.11337E+01  2272   0.434E+00    0.769E+01
RMM:   6    -0.122543672165E+04    0.15353E+02   -0.93200E+00  1608   0.371E+00    0.585E+01
RMM:   7    -0.119367876227E+04    0.31758E+02   -0.49337E+01  1566   0.858E+00    0.337E+01
RMM:   8    -0.118058961208E+04    0.13089E+02   -0.20794E+01  1556   0.617E+00    0.257E+01
RMM:   9    -0.117514976767E+04    0.54398E+01   -0.15112E+01  1551   0.516E+00    0.172E+01
RMM:  10    -0.117699383902E+04   -0.18441E+01   -0.12913E+01  1538   0.473E+00    0.815E+00
RMM:  11    -0.117617905823E+04    0.81478E+00   -0.15323E+00  1599   0.193E+00    0.575E+00
RMM:  12    -0.117588602356E+04    0.29303E+00   -0.72301E-01  1539   0.116E+00    0.246E+00
RMM:  13    -0.117583399946E+04    0.52024E-01   -0.27711E-01  1542   0.730E-01    0.980E-01
RMM:  14    -0.117583527031E+04   -0.12708E-02   -0.14224E-01  1538   0.513E-01    0.516E-01
RMM:  15    -0.117582799089E+04    0.72794E-02   -0.18974E-02  1542   0.215E-01    0.294E-01
RMM:  16    -0.117582858971E+04   -0.59883E-03   -0.12416E-02  1579   0.151E-01    0.171E-01
RMM:  17    -0.117582889875E+04   -0.30903E-03   -0.35548E-03  1544   0.881E-02    0.157E-01
RMM:  18    -0.117582846124E+04    0.43751E-03   -0.67581E-04  1590   0.366E-02    0.898E-02
RMM:  19    -0.117582846418E+04   -0.29415E-05   -0.10105E-03  1538   0.416E-02    0.421E-02
RMM:  20    -0.117582844721E+04    0.16970E-04   -0.12938E-04  1630   0.180E-02    0.246E-02
RMM:  21    -0.117582846554E+04   -0.18328E-04   -0.69295E-05  1630   0.110E-02    0.266E-02
RMM:  22    -0.117582845752E+04    0.80246E-05   -0.24098E-05  1551   0.669E-03    0.970E-03
RMM:  23    -0.117582845960E+04   -0.20844E-05   -0.12653E-05  1566   0.477E-03    0.733E-03
RMM:  24    -0.117582845993E+04   -0.33174E-06   -0.19826E-06  1083   0.217E-03
   1 F= -.11829582E+04 E0= -.11829582E+04  d E =-.118296E+04  mag=     0.9998
       N       E                     dE             d eps       ncg     rms          rms(c)
DAV:   1    -0.117582594955E+04    0.25101E-02   -0.36212E-01  1600   0.993E-01    0.347E-01
RMM:   2    -0.117582697945E+04   -0.10299E-02   -0.11718E-02  1754   0.166E-01    0.322E-01
RMM:   3    -0.117582700052E+04   -0.21069E-04   -0.25085E-03  1782   0.711E-02    0.260E-01
RMM:   4    -0.117582711041E+04   -0.10989E-03   -0.19632E-03  1576   0.576E-02    0.682E-02
RMM:   5    -0.117582698184E+04    0.12857E-03   -0.26971E-04  1606   0.246E-02    0.539E-02
RMM:   6    -0.117582696392E+04    0.17915E-04   -0.11518E-04  1649   0.127E-02    0.265E-02
RMM:   7    -0.117582695741E+04    0.65176E-05   -0.43230E-05  1779   0.795E-03    0.155E-02
RMM:   8    -0.117582695646E+04    0.95189E-06   -0.28940E-05  1583   0.650E-03    0.813E-03
RMM:   9    -0.117582695592E+04    0.53934E-06   -0.41015E-06  1308   0.310E-03
   2 F= -.11829575E+04 E0= -.11829575E+04  d E =0.632048E-03  mag=     1.0000
       N       E                     dE             d eps       ncg     rms          rms(c)
DAV:   1    -0.117582831095E+04   -0.13545E-02   -0.13097E-01  1824   0.595E-01    0.208E-01
RMM:   2    -0.117582864188E+04   -0.33093E-03   -0.38624E-03  1727   0.975E-02    0.192E-01
RMM:   3    -0.117582863207E+04    0.98133E-05   -0.80047E-04  1678   0.414E-02    0.152E-01
RMM:   4    -0.117582867199E+04   -0.39919E-04   -0.69203E-04  1573   0.341E-02    0.415E-02
RMM:   5    -0.117582862523E+04    0.46757E-04   -0.92101E-05  1574   0.146E-02    0.323E-02
RMM:   6    -0.117582861987E+04    0.53559E-05   -0.40213E-05  1637   0.754E-03    0.161E-02
RMM:   7    -0.117582861726E+04    0.26103E-05   -0.15491E-05  1714   0.466E-03    0.990E-03
RMM:   8    -0.117582861683E+04    0.43324E-06   -0.11164E-05  1524   0.400E-03    0.552E-03
RMM:   9    -0.117582861669E+04    0.13553E-06   -0.14864E-06  1018   0.192E-03
   3 F= -.11829587E+04 E0= -.11829587E+04  d E =-.504719E-03  mag=     1.0000
       N       E                     dE             d eps       ncg     rms          rms(c)
DAV:   1    -0.117582853670E+04    0.80132E-04   -0.21007E-01  1728   0.777E-01    0.110E-01
RMM:   2    -0.117582885390E+04   -0.31720E-03   -0.38490E-03  1709   0.106E-01    0.943E-02
RMM:   3    -0.117582888303E+04   -0.29134E-04   -0.93929E-04  1661   0.477E-02    0.724E-02
RMM:   4    -0.117582887767E+04    0.53555E-05   -0.42613E-04  1626   0.288E-02    0.306E-02
RMM:   5    -0.117582888333E+04   -0.56532E-05   -0.76778E-05  2028   0.125E-02    0.219E-02
RMM:   6    -0.117582887886E+04    0.44628E-05   -0.20648E-05  1554   0.569E-03    0.116E-02
RMM:   7    -0.117582887930E+04   -0.43894E-06   -0.50356E-06  1327   0.292E-03
   4 F= -.11829592E+04 E0= -.11829592E+04  d E =-.519914E-03  mag=     1.0000
