       N       E                     dE             d eps       ncg     rms          rms(c)
DAV:   1     0.495275862251E+04    0.49528E+04   -0.17182E+05  1836   0.915E+02
DAV:   2    -0.454398871821E+02   -0.49982E+04   -0.45826E+04  2556   0.210E+02
DAV:   3    -0.118110436150E+04   -0.11357E+04   -0.11307E+04  2124   0.110E+02
DAV:   4    -0.122705012455E+04   -0.45946E+02   -0.45730E+02  2016   0.291E+01
DAV:   5    -0.122823439137E+04   -0.11843E+01   -0.11823E+01  2340   0.439E+00    0.609E+01
RMM:   6    -0.121608891448E+04    0.12145E+02   -0.75463E+00  1584   0.319E+00    0.495E+01
RMM:   7    -0.117695125438E+04    0.39138E+02   -0.60528E+01  1584   0.892E+00    0.312E+01
RMM:   8    -0.116950912420E+04    0.74421E+01   -0.12967E+01  1584   0.419E+00    0.224E+01
RMM:   9    -0.116714856570E+04    0.23606E+01   -0.33823E+01  1584   0.660E+00    0.107E+01
RMM:  10    -0.116641569300E+04    0.73287E+00   -0.13452E+00  1630   0.146E+00    0.806E+00
RMM:  11    -0.116550558887E+04    0.91010E+00   -0.30330E+00  1584   0.159E+00    0.485E+00
RMM:  12    -0.116532226462E+04    0.18332E+00   -0.33322E-01  1591   0.508E-01    0.272E+00
RMM:  13    -0.116522096634E+04    0.10130E+00   -0.35441E-01  1584   0.673E-01    0.813E-01
RMM:  14    -0.116522214394E+04   -0.11776E-02   -0.27130E-02  1611   0.197E-01    0.651E-01
RMM:  15    -0.116521965195E+04    0.24920E-02   -0.67781E-03  1584   0.848E-02    0.566E-01
RMM:  16    -0.116521695922E+04    0.26927E-02   -0.17497E-02  1584   0.128E-01    0.238E-01
RMM:  17    -0.116521699994E+04   -0.40722E-04   -0.13124E-03  1265   0.342E-02    0.176E-01
RMM:  18    -0.116521673768E+04    0.26226E-03   -0.21176E-03  1581   0.451E-02    0.815E-02
RMM:  19    -0.116521664456E+04    0.93120E-04   -0.43890E-04  1280   0.227E-02
   1 F= -.11723717E+04 E0= -.11723717E+04  d E =-.117237E+04  mag=    -0.0022
       N       E                     dE             d eps       ncg     rms          rms(c)
DAV:   1    -0.116521798649E+04   -0.12488E-02   -0.33208E-01  1692   0.908E-01    0.214E-01
RMM:   2    -0.116521811525E+04   -0.12876E-03   -0.89436E-03  1584   0.131E-01    0.190E-01
RMM:   3    -0.116521739129E+04    0.72396E-03   -0.73375E-04  1584   0.337E-02    0.149E-01
RMM:   4    -0.116521661156E+04    0.77973E-03   -0.17938E-03  1584   0.463E-02    0.697E-02
RMM:   5    -0.116521656025E+04    0.51310E-04   -0.51135E-04  1476   0.256E-02
   2 F= -.11723720E+04 E0= -.11723720E+04  d E =-.270769E-03  mag=    -0.0001
       N       E                     dE             d eps       ncg     rms          rms(c)
DAV:   1    -0.116521762435E+04   -0.10128E-02   -0.61541E-02  1692   0.388E-01    0.870E-02
RMM:   2    -0.116521760134E+04    0.23011E-04   -0.13193E-03  1584   0.528E-02    0.791E-02
RMM:   3    -0.116521742549E+04    0.17585E-03   -0.12175E-04  1006   0.148E-02    0.594E-02
RMM:   4    -0.116521727203E+04    0.15346E-03   -0.59182E-04  1527   0.268E-02    0.224E-02
RMM:   5    -0.116521727162E+04    0.41015E-06   -0.24734E-05   988   0.711E-03
   3 F= -.11723725E+04 E0= -.11723725E+04  d E =-.829152E-03  mag=    -0.0000
