       N       E                     dE             d eps       ncg     rms          rms(c)
DAV:   1     0.490633499753E+04    0.49063E+04   -0.17393E+05  1872   0.911E+02
DAV:   2    -0.519340839640E+02   -0.49583E+04   -0.45247E+04  2520   0.208E+02
DAV:   3    -0.119102182326E+04   -0.11391E+04   -0.11336E+04  2124   0.110E+02
DAV:   4    -0.123691037242E+04   -0.45889E+02   -0.45677E+02  2016   0.290E+01
DAV:   5    -0.123808183445E+04   -0.11715E+01   -0.11691E+01  2376   0.431E+00    0.778E+01
RMM:   6    -0.123364792621E+04    0.44339E+01   -0.10462E+02  1765   0.100E+01    0.718E+01
RMM:   7    -0.121131287420E+04    0.22335E+02   -0.88853E+00  1876   0.364E+00    0.472E+01
RMM:   8    -0.119720173348E+04    0.14111E+02   -0.14316E+01  1633   0.415E+00    0.399E+01
RMM:   9    -0.118127701217E+04    0.15925E+02   -0.14533E+01  1689   0.423E+00    0.274E+01
RMM:  10    -0.116937115824E+04    0.11906E+02   -0.31172E+01  1614   0.583E+00    0.176E+01
RMM:  11    -0.116933921870E+04    0.31940E-01   -0.15076E+01  1750   0.433E+00    0.122E+01
RMM:  12    -0.116933965616E+04   -0.43746E-03   -0.95573E-01  1928   0.140E+00    0.705E+00
RMM:  13    -0.116903988260E+04    0.29977E+00   -0.32746E-01  1651   0.627E-01    0.770E+00
RMM:  14    -0.116878628327E+04    0.25360E+00   -0.10559E+00  1645   0.111E+00    0.266E+00
RMM:  15    -0.116871248676E+04    0.73797E-01   -0.12763E-01  1855   0.453E-01    0.146E+00
RMM:  16    -0.116870470809E+04    0.77787E-02   -0.65439E-02  1743   0.291E-01    0.117E+00
RMM:  17    -0.116869775122E+04    0.69569E-02   -0.18527E-02  1833   0.167E-01    0.405E-01
RMM:  18    -0.116869853120E+04   -0.77998E-03   -0.11934E-03  1748   0.543E-02    0.503E-01
RMM:  19    -0.116870026032E+04   -0.17291E-02   -0.15447E-03  1625   0.452E-02    0.645E-01
RMM:  20    -0.116870040545E+04   -0.14513E-03   -0.14646E-03  1511   0.413E-02    0.334E-01
RMM:  21    -0.116870029078E+04    0.11467E-03   -0.11684E-03  1444   0.357E-02    0.125E-01
RMM:  22    -0.116870044007E+04   -0.14929E-03   -0.33520E-04  1205   0.232E-02    0.127E-01
RMM:  23    -0.116870052561E+04   -0.85546E-04   -0.19743E-04  1123   0.191E-02
   1 F= -.11757314E+04 E0= -.11757300E+04  d E =-.117573E+04  mag=     1.9607
       N       E                     dE             d eps       ncg     rms          rms(c)
DAV:   1    -0.116869567016E+04    0.47699E-02   -0.74459E-01  1836   0.157E+00    0.383E-01
RMM:   2    -0.116869978232E+04   -0.41122E-02   -0.41850E-02  1821   0.274E-01    0.549E-01
RMM:   3    -0.116869902506E+04    0.75726E-03   -0.30675E-03  2017   0.770E-02    0.313E-01
RMM:   4    -0.116869884406E+04    0.18100E-03   -0.27159E-04  1219   0.233E-02    0.289E-01
RMM:   5    -0.116869784128E+04    0.10028E-02   -0.42203E-03  1591   0.692E-02    0.986E-02
RMM:   6    -0.116869779728E+04    0.44002E-04   -0.33552E-04  1359   0.252E-02
   2 F= -.11757290E+04 E0= -.11757275E+04  d E =0.243155E-02  mag=     1.9704
       N       E                     dE             d eps       ncg     rms          rms(c)
DAV:   1    -0.116870080213E+04   -0.29608E-02   -0.31837E-01  1800   0.102E+00    0.244E-01
RMM:   2    -0.116870222436E+04   -0.14222E-02   -0.15032E-02  1788   0.169E-01    0.316E-01
RMM:   3    -0.116870193959E+04    0.28477E-03   -0.10477E-03  1677   0.462E-02    0.223E-01
RMM:   4    -0.116870181770E+04    0.12189E-03   -0.10915E-04  1089   0.168E-02    0.200E-01
RMM:   5    -0.116870139829E+04    0.41941E-03   -0.18440E-03  1590   0.452E-02    0.804E-02
RMM:   6    -0.116870137067E+04    0.27620E-04   -0.95278E-05  1085   0.142E-02
   3 F= -.11757324E+04 E0= -.11757309E+04  d E =-.948463E-03  mag=     1.9712
