       N       E                     dE             d eps       ncg     rms          rms(c)
DAV:   1     0.466441034936E+04    0.46644E+04   -0.17049E+05  1872   0.899E+02
DAV:   2    -0.124041079327E+03   -0.47885E+04   -0.43549E+04  2556   0.206E+02
DAV:   3    -0.118701446418E+04   -0.10630E+04   -0.10585E+04  2124   0.106E+02
DAV:   4    -0.122804222290E+04   -0.41028E+02   -0.40817E+02  2088   0.273E+01
DAV:   5    -0.122910478281E+04   -0.10626E+01   -0.10603E+01  2376   0.404E+00    0.633E+01
RMM:   6    -0.121420427215E+04    0.14901E+02   -0.12344E+01  1584   0.367E+00    0.497E+01
RMM:   7    -0.118831925952E+04    0.25885E+02   -0.24368E+01  1584   0.567E+00    0.343E+01
RMM:   8    -0.116787456402E+04    0.20445E+02   -0.29866E+01  1584   0.622E+00    0.235E+01
RMM:   9    -0.116415634834E+04    0.37182E+01   -0.19628E+01  1584   0.505E+00    0.126E+01
RMM:  10    -0.116534250029E+04   -0.11862E+01   -0.53872E+00  1587   0.269E+00    0.787E+00
RMM:  11    -0.116445528730E+04    0.88721E+00   -0.23879E+00  1584   0.175E+00    0.223E+00
RMM:  12    -0.116441132711E+04    0.43960E-01   -0.87987E-02  1587   0.364E-01    0.128E+00
RMM:  13    -0.116440056659E+04    0.10761E-01   -0.68378E-02  1585   0.275E-01    0.483E-01
RMM:  14    -0.116439891287E+04    0.16537E-02   -0.18261E-02  1584   0.154E-01    0.297E-01
RMM:  15    -0.116439773310E+04    0.11798E-02   -0.33507E-03  1591   0.671E-02    0.161E-01
RMM:  16    -0.116439774304E+04   -0.99390E-05   -0.10047E-03  1413   0.337E-02    0.913E-02
RMM:  17    -0.116439785886E+04   -0.11582E-03   -0.42507E-04  1181   0.236E-02    0.535E-02
RMM:  18    -0.116439791083E+04   -0.51972E-04   -0.60435E-05  1044   0.103E-02
   1 F= -.11715190E+04 E0= -.11715178E+04  d E =-.117152E+04  mag=    -0.9767
       N       E                     dE             d eps       ncg     rms          rms(c)
DAV:   1    -0.116439637900E+04    0.14799E-02   -0.14874E+00  1692   0.179E+00    0.447E-01
RMM:   2    -0.116439876850E+04   -0.23895E-02   -0.32529E-02  1584   0.246E-01    0.436E-01
RMM:   3    -0.116439851925E+04    0.24925E-03   -0.21878E-03  1637   0.527E-02    0.412E-01
RMM:   4    -0.116439708002E+04    0.14392E-02   -0.43394E-03  1584   0.723E-02    0.175E-01
RMM:   5    -0.116439724566E+04   -0.16565E-03   -0.14956E-03  1584   0.434E-02    0.860E-02
RMM:   6    -0.116439705796E+04    0.18770E-03   -0.36244E-04  1297   0.201E-02    0.429E-02
RMM:   7    -0.116439706063E+04   -0.26685E-05   -0.48546E-05  1014   0.936E-03
   2 F= -.11715188E+04 E0= -.11715175E+04  d E =0.238137E-03  mag=    -0.9721
       N       E                     dE             d eps       ncg     rms          rms(c)
DAV:   1    -0.116440040735E+04   -0.33494E-02   -0.40021E-01  1728   0.927E-01    0.230E-01
RMM:   2    -0.116440088709E+04   -0.47974E-03   -0.75907E-03  1586   0.123E-01    0.226E-01
RMM:   3    -0.116440079348E+04    0.93602E-04   -0.45405E-04  1232   0.255E-02
   3 F= -.11715222E+04 E0= -.11715210E+04  d E =-.318111E-02  mag=    -0.9728
       N       E                     dE             d eps       ncg     rms          rms(c)
DAV:   1    -0.116439870022E+04    0.21869E-02   -0.68565E-01  1800   0.130E+00    0.262E-01
RMM:   2    -0.116439960698E+04   -0.90676E-03   -0.16368E-02  1584   0.193E-01    0.257E-01
RMM:   3    -0.116439921660E+04    0.39038E-03   -0.87962E-04  1410   0.386E-02    0.241E-01
RMM:   4    -0.116439778153E+04    0.14351E-02   -0.57858E-03  1584   0.814E-02    0.965E-02
RMM:   5    -0.116439774319E+04    0.38343E-04   -0.29331E-04  1170   0.226E-02
   4 F= -.11715188E+04 E0= -.11715175E+04  d E =0.338700E-02  mag=    -0.9699
       N       E                     dE             d eps       ncg     rms          rms(c)
DAV:   1    -0.116440175166E+04   -0.39701E-02   -0.34717E-01  1728   0.924E-01    0.154E-01
RMM:   2    -0.116440216358E+04   -0.41192E-03   -0.79349E-03  1584   0.135E-01    0.151E-01
RMM:   3    -0.116440198022E+04    0.18336E-03   -0.39003E-04  1235   0.265E-02    0.142E-01
RMM:   4    -0.116440127646E+04    0.70377E-03   -0.24211E-03  1584   0.524E-02    0.559E-02
RMM:   5    -0.116440126039E+04    0.16066E-04   -0.11828E-04  1067   0.150E-02
   5 F= -.11715226E+04 E0= -.11715213E+04  d E =-.364044E-03  mag=    -0.9721
