       N       E                     dE             d eps       ncg     rms          rms(c)
DAV:   1     0.529804550850E+04    0.52980E+04   -0.17073E+05  1764   0.926E+02
DAV:   2     0.594594738237E+02   -0.52386E+04   -0.47865E+04  2520   0.221E+02
DAV:   3    -0.118251916951E+04   -0.12420E+04   -0.12346E+04  2160   0.118E+02
DAV:   4    -0.123854847025E+04   -0.56029E+02   -0.55613E+02  2016   0.335E+01
DAV:   5    -0.124092817808E+04   -0.23797E+01   -0.23741E+01  2592   0.690E+00    0.600E+01
RMM:   6    -0.122834417489E+04    0.12584E+02   -0.57854E+00  1744   0.325E+00    0.489E+01
RMM:   7    -0.118827692781E+04    0.40067E+02   -0.52854E+01  1960   0.959E+00    0.287E+01
RMM:   8    -0.117845097900E+04    0.98259E+01   -0.16392E+01  1936   0.714E+00    0.204E+01
RMM:   9    -0.117730354907E+04    0.11474E+01   -0.27564E+01  2015   0.780E+00    0.944E+00
RMM:  10    -0.117753454372E+04   -0.23099E+00   -0.14883E+00  2002   0.336E+00    0.787E+00
RMM:  11    -0.117665372360E+04    0.88082E+00   -0.26001E+00  1894   0.257E+00    0.201E+00
RMM:  12    -0.117670842407E+04   -0.54700E-01   -0.21508E-01  1862   0.181E+00    0.992E-01
RMM:  13    -0.117671573905E+04   -0.73150E-02   -0.72123E-02  1926   0.779E-01    0.485E-01
RMM:  14    -0.117671694011E+04   -0.12011E-02   -0.54108E-02  1971   0.397E-01    0.312E-01
RMM:  15    -0.117671570137E+04    0.12387E-02   -0.10941E-02  1959   0.196E-01    0.201E-01
RMM:  16    -0.117671622874E+04   -0.52737E-03   -0.22273E-03  1847   0.968E-02    0.139E-01
RMM:  17    -0.117671687643E+04   -0.64769E-03   -0.11682E-03  1542   0.643E-02    0.108E-01
RMM:  18    -0.117671767428E+04   -0.79785E-03   -0.16500E-03  1729   0.591E-02    0.101E-01
RMM:  19    -0.117671808909E+04   -0.41481E-03   -0.18772E-03  1776   0.678E-02    0.733E-02
RMM:  20    -0.117671834320E+04   -0.25411E-03   -0.88487E-04  1371   0.591E-02    0.481E-02
RMM:  21    -0.117671849526E+04   -0.15206E-03   -0.10713E-03  1576   0.504E-02    0.377E-02
RMM:  22    -0.117671851700E+04   -0.21741E-04   -0.16998E-04  1103   0.358E-02
   1 F= -.11844259E+04 E0= -.11844259E+04  d E =-.118443E+04  mag=     0.0020
       N       E                     dE             d eps       ncg     rms          rms(c)
DAV:   1    -0.117671781731E+04    0.67795E-03   -0.22484E-01  1692   0.756E-01    0.130E-01
RMM:   2    -0.117671827714E+04   -0.45983E-03   -0.73795E-03  1927   0.127E-01    0.122E-01
RMM:   3    -0.117671823065E+04    0.46487E-04   -0.45697E-04  1296   0.693E-02
   2 F= -.11844261E+04 E0= -.11844261E+04  d E =-.217825E-03  mag=    -0.0007
       N       E                     dE             d eps       ncg     rms          rms(c)
DAV:   1    -0.117671865538E+04   -0.37824E-03   -0.40999E-02  1980   0.329E-01    0.412E-02
RMM:   2    -0.117671882811E+04   -0.17274E-03   -0.14394E-03  1786   0.603E-02    0.347E-02
RMM:   3    -0.117671884124E+04   -0.13129E-04   -0.11302E-04  1001   0.458E-02
   3 F= -.11844265E+04 E0= -.11844265E+04  d E =-.628666E-03  mag=    -0.0000
