       N       E                     dE             d eps       ncg     rms          rms(c)
DAV:   1     0.496805769365E+04    0.49681E+04   -0.17197E+05  1836   0.916E+02
DAV:   2    -0.281410557816E+02   -0.49962E+04   -0.45857E+04  2556   0.209E+02
DAV:   3    -0.118147929656E+04   -0.11533E+04   -0.11455E+04  2160   0.111E+02
DAV:   4    -0.122722361294E+04   -0.45744E+02   -0.45504E+02  2016   0.290E+01
DAV:   5    -0.122838236228E+04   -0.11587E+01   -0.11564E+01  2412   0.423E+00    0.682E+01
RMM:   6    -0.121876010308E+04    0.96223E+01   -0.40793E+01  1584   0.608E+00    0.572E+01
RMM:   7    -0.120337137183E+04    0.15389E+02   -0.51744E+00  1584   0.260E+00    0.487E+01
RMM:   8    -0.119306157518E+04    0.10310E+02   -0.51628E+01  1584   0.811E+00    0.418E+01
RMM:   9    -0.117856738667E+04    0.14494E+02   -0.20994E+00  1599   0.178E+00    0.359E+01
RMM:  10    -0.117468911797E+04    0.38783E+01   -0.72894E-01  1703   0.689E-01    0.330E+01
RMM:  11    -0.116896114850E+04    0.57280E+01   -0.32766E+01  1584   0.498E+00    0.219E+01
RMM:  12    -0.117055994215E+04   -0.15988E+01   -0.63691E+00  1584   0.271E+00    0.193E+01
RMM:  13    -0.116534200608E+04    0.52179E+01   -0.81269E+00  1584   0.298E+00    0.120E+01
RMM:  14    -0.116251800800E+04    0.28240E+01   -0.27730E+00  1633   0.111E+00    0.860E+00
RMM:  15    -0.116198992786E+04    0.52808E+00   -0.51968E-01  1589   0.392E-01    0.778E+00
RMM:  16    -0.116193511755E+04    0.54810E-01   -0.75681E-02  1592   0.213E-01    0.692E+00
RMM:  17    -0.116154589088E+04    0.38923E+00   -0.21609E+00  1584   0.129E+00    0.398E+00
RMM:  18    -0.116184001471E+04   -0.29412E+00   -0.44972E-01  1584   0.581E-01    0.102E+01
RMM:  19    -0.116161032127E+04    0.22969E+00   -0.33144E-02  1652   0.183E-01    0.921E+00
RMM:  20    -0.116166772728E+04   -0.57406E-01   -0.76376E-03  1488   0.730E-02    0.897E+00
RMM:  21    -0.116188538288E+04   -0.21766E+00   -0.29028E-01  1584   0.395E-01    0.653E+00
RMM:  22    -0.116160853630E+04    0.27685E+00   -0.91664E-02  1594   0.194E-01    0.499E+00
RMM:  23    -0.116138578157E+04    0.22275E+00   -0.87106E-02  1584   0.259E-01    0.407E+00
RMM:  24    -0.116131132019E+04    0.74461E-01   -0.87644E-02  1603   0.185E-01    0.611E+00
RMM:  25    -0.116128198300E+04    0.29337E-01   -0.86446E-03  1462   0.954E-02    0.513E+00
RMM:  26    -0.116126605957E+04    0.15923E-01   -0.10352E-03  1142   0.285E-02    0.499E+00
RMM:  27    -0.116128900014E+04   -0.22941E-01   -0.26797E-03  1317   0.439E-02    0.510E+00
RMM:  28    -0.116128904884E+04   -0.48699E-04   -0.19314E-02  1585   0.103E-01    0.244E+00
RMM:  29    -0.116129735359E+04   -0.83047E-02   -0.12159E-03  1175   0.308E-02    0.243E+00
RMM:  30    -0.116130222171E+04   -0.48681E-02   -0.34245E-04  1078   0.168E-02    0.248E+00
RMM:  31    -0.116131326764E+04   -0.11046E-01   -0.19477E-03  1206   0.340E-02    0.271E+00
RMM:  32    -0.116133291578E+04   -0.19648E-01   -0.17824E-02  1588   0.101E-01    0.243E+00
RMM:  33    -0.116133614477E+04   -0.32290E-02   -0.45415E-03  1444   0.533E-02    0.254E+00
RMM:  34    -0.116133207421E+04    0.40706E-02   -0.16213E-02  1566   0.856E-02    0.700E-01
RMM:  35    -0.116133827313E+04   -0.61989E-02   -0.34288E-03  1267   0.472E-02    0.109E+00
RMM:  36    -0.116133308917E+04    0.51840E-02   -0.90158E-04  1160   0.297E-02    0.526E-01
RMM:  37    -0.116133556350E+04   -0.24743E-02   -0.57150E-04  1092   0.235E-02    0.348E-01
RMM:  38    -0.116133654669E+04   -0.98319E-03   -0.58755E-04  1120   0.233E-02    0.332E-01
RMM:  39    -0.116133647011E+04    0.76581E-04   -0.13263E-03  1095   0.268E-02    0.265E-01
RMM:  40    -0.116133768510E+04   -0.12150E-02   -0.11816E-03  1096   0.214E-02    0.978E-01
RMM:  41    -0.116133664606E+04    0.10390E-02   -0.31272E-04  1064   0.194E-02    0.105E+00
RMM:  42    -0.116133574970E+04    0.89636E-03   -0.16732E-04  1014   0.121E-02    0.108E+00
RMM:  43    -0.116133550134E+04    0.24836E-03   -0.21907E-04  1036   0.124E-02    0.119E+00
RMM:  44    -0.116133332314E+04    0.21782E-02   -0.59460E-04  1084   0.197E-02    0.589E-01
RMM:  45    -0.116133502557E+04   -0.17024E-02   -0.23013E-04  1038   0.160E-02    0.299E-01
RMM:  46    -0.116133629008E+04   -0.12645E-02   -0.74609E-05   925   0.106E-02    0.263E-01
RMM:  47    -0.116133664356E+04   -0.35348E-03   -0.12583E-05   759   0.523E-03    0.273E-01
RMM:  48    -0.116133745901E+04   -0.81544E-03   -0.21114E-04   884   0.107E-02    0.471E-01
RMM:  49    -0.116133690716E+04    0.55184E-03   -0.44696E-05   715   0.709E-03    0.424E-01
RMM:  50    -0.116133629286E+04    0.61431E-03   -0.73938E-05   669   0.759E-03    0.480E-01
RMM:  51    -0.116133753199E+04   -0.12391E-02   -0.75849E-04  1077   0.218E-02    0.217E-01
RMM:  52    -0.116133772365E+04   -0.19167E-03   -0.95777E-05   903   0.101E-02    0.213E-01
RMM:  53    -0.116133511035E+04    0.26133E-02   -0.92573E-04   998   0.215E-02    0.225E-01
RMM:  54    -0.116133773517E+04   -0.26248E-02   -0.48103E-04   916   0.178E-02    0.220E-01
RMM:  55    -0.116133861170E+04   -0.87653E-03   -0.12795E-03  1069   0.246E-02    0.233E-01
RMM:  56    -0.116133760948E+04    0.10022E-02   -0.61149E-03  1146   0.475E-02    0.207E-01
RMM:  57    -0.116134004058E+04   -0.24311E-02   -0.91110E-04  1049   0.204E-02    0.211E-01
RMM:  58    -0.116134042002E+04   -0.37944E-03   -0.16193E-04   836   0.103E-02    0.191E-01
RMM:  59    -0.116133995851E+04    0.46151E-03   -0.55680E-05   723   0.834E-03    0.181E-01
RMM:  60    -0.116134048173E+04   -0.52321E-03   -0.95033E-05   790   0.837E-03    0.177E-01
RMM:  61    -0.116134037789E+04    0.10384E-03   -0.12179E-05   640   0.436E-03    0.211E-01
RMM:  62    -0.116134011158E+04    0.26632E-03   -0.14109E-05   623   0.455E-03    0.192E-01
RMM:  63    -0.116134044331E+04   -0.33173E-03   -0.32818E-05   712   0.578E-03    0.196E-01
RMM:  64    -0.116133976839E+04    0.67492E-03   -0.12252E-04   696   0.894E-03    0.188E-01
RMM:  65    -0.116134062608E+04   -0.85769E-03   -0.32739E-04   758   0.137E-02    0.196E-01
RMM:  66    -0.116134079860E+04   -0.17252E-03   -0.16430E-03  1078   0.290E-02    0.140E-01
RMM:  67    -0.116134127563E+04   -0.47702E-03   -0.96106E-04  1026   0.190E-02    0.135E-01
RMM:  68    -0.116134109954E+04    0.17609E-03   -0.20688E-03  1082   0.277E-02    0.103E-01
RMM:  69    -0.116134116692E+04   -0.67388E-04   -0.28756E-03  1103   0.318E-02    0.804E-02
RMM:  70    -0.116134267376E+04   -0.15068E-02   -0.59746E-04   990   0.175E-02    0.817E-02
RMM:  71    -0.116133874660E+04    0.39272E-02   -0.10630E-02  1230   0.647E-02    0.178E-01
RMM:  72    -0.116134316399E+04   -0.44174E-02   -0.51514E-04  1061   0.199E-02    0.125E-01
RMM:  73    -0.116134339442E+04   -0.23043E-03   -0.60253E-05   816   0.787E-03    0.126E-01
RMM:  74    -0.116134330654E+04    0.87878E-04   -0.15356E-05   657   0.493E-03
   1 F= -.11684569E+04 E0= -.11684484E+04  d E =-.116846E+04  mag=    -1.3253
       N       E                     dE             d eps       ncg     rms          rms(c)
DAV:   1    -0.116134053975E+04    0.28547E-02   -0.15852E+00  1656   0.149E+00    0.528E-01
RMM:   2    -0.116134364345E+04   -0.31037E-02   -0.31055E-02  1586   0.207E-01    0.457E-01
RMM:   3    -0.116134400499E+04   -0.36154E-03   -0.16240E-03  1385   0.416E-02    0.436E-01
RMM:   4    -0.116134383255E+04    0.17244E-03   -0.42051E-04  1144   0.242E-02    0.352E-01
RMM:   5    -0.116134410316E+04   -0.27061E-03   -0.10230E-03  1483   0.358E-02    0.254E-01
RMM:   6    -0.116134423625E+04   -0.13309E-03   -0.43538E-04  1092   0.222E-02    0.207E-01
RMM:   7    -0.116134423694E+04   -0.69143E-06   -0.96649E-05  1018   0.119E-02
   2 F= -.11684583E+04 E0= -.11684501E+04  d E =-.149411E-02  mag=    -1.3177
       N       E                     dE             d eps       ncg     rms          rms(c)
DAV:   1    -0.116134431564E+04   -0.79386E-04   -0.20897E-01  1692   0.543E-01    0.251E-01
RMM:   2    -0.116134550930E+04   -0.11937E-02   -0.40867E-03  1584   0.771E-02    0.328E-01
RMM:   3    -0.116134520129E+04    0.30801E-03   -0.17728E-04  1029   0.156E-02    0.212E-01
RMM:   4    -0.116134545829E+04   -0.25700E-03   -0.96780E-05   990   0.124E-02    0.216E-01
RMM:   5    -0.116134542877E+04    0.29520E-04   -0.41243E-05   974   0.816E-03
   3 F= -.11684593E+04 E0= -.11684509E+04  d E =-.248290E-02  mag=    -1.3185
       N       E                     dE             d eps       ncg     rms          rms(c)
DAV:   1    -0.116133924576E+04    0.62125E-02   -0.71770E-01  1692   0.137E+00    0.324E-01
RMM:   2    -0.116134205037E+04   -0.28046E-02   -0.18615E-02  1592   0.205E-01    0.338E-01
RMM:   3    -0.116134203203E+04    0.18337E-04   -0.86451E-04  1354   0.392E-02
   4 F= -.11684562E+04 E0= -.11684476E+04  d E =0.310004E-02  mag=    -1.3165
       N       E                     dE             d eps       ncg     rms          rms(c)
DAV:   1    -0.116134517479E+04   -0.31244E-02   -0.33019E-01  1728   0.930E-01    0.233E-01
RMM:   2    -0.116134619821E+04   -0.10234E-02   -0.92437E-03  1595   0.142E-01    0.238E-01
RMM:   3    -0.116134610593E+04    0.92284E-04   -0.38914E-04  1203   0.274E-02
   5 F= -.11684601E+04 E0= -.11684517E+04  d E =-.770806E-03  mag=    -1.3118
