       N       E                     dE             d eps       ncg     rms          rms(c)
DAV:   1     0.474408424825E+04    0.47441E+04   -0.17380E+05  1872   0.907E+02
DAV:   2    -0.964151572262E+02   -0.48405E+04   -0.44216E+04  2556   0.209E+02
DAV:   3    -0.118904941102E+04   -0.10926E+04   -0.10879E+04  2124   0.108E+02
DAV:   4    -0.123360775693E+04   -0.44558E+02   -0.44253E+02  2088   0.301E+01
DAV:   5    -0.123490237058E+04   -0.12946E+01   -0.12917E+01  2340   0.464E+00    0.701E+01
RMM:   6    -0.121881766586E+04    0.16085E+02   -0.14967E+01  1634   0.440E+00    0.513E+01
RMM:   7    -0.120433151071E+04    0.14486E+02   -0.91956E+00  1587   0.378E+00    0.433E+01
RMM:   8    -0.117560421518E+04    0.28727E+02   -0.44483E+01  1593   0.802E+00    0.262E+01
RMM:   9    -0.117116286967E+04    0.44413E+01   -0.10101E+01  1586   0.440E+00    0.184E+01
RMM:  10    -0.117067095876E+04    0.49191E+00   -0.17512E+01  1585   0.499E+00    0.857E+00
RMM:  11    -0.117092175675E+04   -0.25080E+00   -0.10247E+00  1621   0.225E+00    0.637E+00
RMM:  12    -0.117018950108E+04    0.73226E+00   -0.13333E+00  1584   0.134E+00    0.290E+00
RMM:  13    -0.117014032682E+04    0.49174E-01   -0.13841E-01  1604   0.556E-01    0.157E+00
RMM:  14    -0.117012746022E+04    0.12867E-01   -0.12069E-01  1593   0.424E-01    0.760E-01
RMM:  15    -0.117012668522E+04    0.77500E-03   -0.21559E-02  1637   0.263E-01    0.627E-01
RMM:  16    -0.117012697023E+04   -0.28500E-03   -0.28301E-03  1816   0.749E-02    0.586E-01
RMM:  17    -0.117012671755E+04    0.25267E-03   -0.53067E-04  1394   0.323E-02    0.514E-01
RMM:  18    -0.117012703036E+04   -0.31281E-03   -0.76213E-04  1395   0.394E-02    0.205E-01
RMM:  19    -0.117012712118E+04   -0.90819E-04   -0.33625E-04  1199   0.272E-02
   1 F= -.11771330E+04 E0= -.11771330E+04  d E =-.117713E+04  mag=     1.9994
       N       E                     dE             d eps       ncg     rms          rms(c)
DAV:   1    -0.117012451105E+04    0.25193E-02   -0.37652E-01  1800   0.107E+00    0.180E-01
RMM:   2    -0.117012567727E+04   -0.11662E-02   -0.14674E-02  1617   0.176E-01    0.180E-01
RMM:   3    -0.117012558924E+04    0.88029E-04   -0.91938E-04  1499   0.618E-02
   2 F= -.11771315E+04 E0= -.11771315E+04  d E =0.145724E-02  mag=     1.9997
       N       E                     dE             d eps       ncg     rms          rms(c)
DAV:   1    -0.117012693538E+04   -0.12581E-02   -0.15814E-01  1872   0.695E-01    0.140E-01
RMM:   2    -0.117012748499E+04   -0.54961E-03   -0.52252E-03  1584   0.108E-01    0.975E-02
RMM:   3    -0.117012750858E+04   -0.23589E-04   -0.31536E-04  1171   0.367E-02
   3 F= -.11771334E+04 E0= -.11771334E+04  d E =-.412403E-03  mag=     2.0000
