       N       E                     dE             d eps       ncg     rms          rms(c)
DAV:   1     0.492196103745E+04    0.49220E+04   -0.16855E+05  1692   0.984E+02
DAV:   2     0.158554396400E+02   -0.49061E+04   -0.45054E+04  2268   0.221E+02
DAV:   3    -0.117865125547E+04   -0.11945E+04   -0.11870E+04  1872   0.120E+02
DAV:   4    -0.123231014792E+04   -0.53659E+02   -0.53303E+02  1872   0.346E+01
DAV:   5    -0.123373822650E+04   -0.14281E+01   -0.14240E+01  2052   0.536E+00    0.668E+01
RMM:   6    -0.121880642306E+04    0.14932E+02   -0.32756E+01  1476   0.676E+00    0.542E+01
RMM:   7    -0.120174166053E+04    0.17065E+02   -0.82820E+00  1443   0.375E+00    0.427E+01
RMM:   8    -0.117661215463E+04    0.25130E+02   -0.31910E+01  1440   0.729E+00    0.277E+01
RMM:   9    -0.116536686142E+04    0.11245E+02   -0.19078E+01  1441   0.603E+00    0.198E+01
RMM:  10    -0.116586003236E+04   -0.49317E+00   -0.20575E+01  1441   0.593E+00    0.896E+00
RMM:  11    -0.116559911985E+04    0.26091E+00   -0.14691E+00  1478   0.265E+00    0.712E+00
RMM:  12    -0.116514161094E+04    0.45751E+00   -0.95436E-01  1443   0.105E+00    0.439E+00
RMM:  13    -0.116485772225E+04    0.28389E+00   -0.56713E-01  1440   0.992E-01    0.140E+00
RMM:  14    -0.116479414338E+04    0.63579E-01   -0.21441E-01  1536   0.610E-01    0.103E+00
RMM:  15    -0.116478665585E+04    0.74875E-02   -0.20838E-02  1568   0.218E-01    0.721E-01
RMM:  16    -0.116478469511E+04    0.19607E-02   -0.93839E-03  1452   0.127E-01    0.506E-01
RMM:  17    -0.116478480837E+04   -0.11325E-03   -0.26654E-03  1486   0.682E-02    0.334E-01
RMM:  18    -0.116478507017E+04   -0.26180E-03   -0.10119E-03  1404   0.478E-02    0.185E-01
RMM:  19    -0.116478502130E+04    0.48876E-04   -0.58748E-04  1117   0.357E-02
   1 F= -.11720178E+04 E0= -.11720178E+04  d E =-.117202E+04  mag=    -0.0034
       N       E                     dE             d eps       ncg     rms          rms(c)
DAV:   1    -0.116478462530E+04    0.44487E-03   -0.39319E-01  1584   0.105E+00    0.207E-01
RMM:   2    -0.116478520693E+04   -0.58163E-03   -0.93337E-03  1442   0.165E-01    0.229E-01
RMM:   3    -0.116478534503E+04   -0.13810E-03   -0.84916E-04  1304   0.528E-02    0.277E-01
RMM:   4    -0.116478463676E+04    0.70827E-03   -0.71670E-04  1410   0.354E-02    0.216E-01
RMM:   5    -0.116478433907E+04    0.29769E-03   -0.14037E-03  1440   0.480E-02    0.154E-01
RMM:   6    -0.116478433191E+04    0.71611E-05   -0.63175E-05   883   0.198E-02
   2 F= -.11720173E+04 E0= -.11720173E+04  d E =0.567298E-03  mag=    -0.0004
       N       E                     dE             d eps       ncg     rms          rms(c)
DAV:   1    -0.116478572807E+04   -0.13890E-02   -0.12958E-01  1620   0.600E-01    0.119E-01
RMM:   2    -0.116478587461E+04   -0.14654E-03   -0.27223E-03  1440   0.923E-02    0.888E-02
RMM:   3    -0.116478576864E+04    0.10598E-03   -0.18474E-04   928   0.270E-02    0.770E-02
RMM:   4    -0.116478569149E+04    0.77142E-04   -0.86501E-05   871   0.179E-02
   3 F= -.11720186E+04 E0= -.11720186E+04  d E =-.720761E-03  mag=     0.0001
