       N       E                     dE             d eps       ncg     rms          rms(c)
DAV:   1     0.499556876387E+04    0.49956E+04   -0.17226E+05  1836   0.917E+02
DAV:   2    -0.288537647691E+02   -0.50244E+04   -0.45898E+04  2520   0.210E+02
DAV:   3    -0.118999690746E+04   -0.11611E+04   -0.11554E+04  2124   0.112E+02
DAV:   4    -0.123675895755E+04   -0.46762E+02   -0.46477E+02  2088   0.294E+01
DAV:   5    -0.123794019440E+04   -0.11812E+01   -0.11780E+01  2304   0.431E+00    0.673E+01
RMM:   6    -0.122392744191E+04    0.14013E+02   -0.31491E+01  1584   0.536E+00    0.647E+01
RMM:   7    -0.121377146351E+04    0.10156E+02   -0.32691E+00  1585   0.208E+00    0.485E+01
RMM:   8    -0.119675963976E+04    0.17012E+02   -0.11387E+01  1584   0.383E+00    0.367E+01
RMM:   9    -0.117764646090E+04    0.19113E+02   -0.26205E+01  1584   0.590E+00    0.251E+01
RMM:  10    -0.117184150243E+04    0.58050E+01   -0.87516E+00  1584   0.344E+00    0.186E+01
RMM:  11    -0.117080732266E+04    0.10342E+01   -0.75173E+00  1584   0.315E+00    0.123E+01
RMM:  12    -0.117169951058E+04   -0.89219E+00   -0.28939E+00  1588   0.198E+00    0.745E+00
RMM:  13    -0.117154744615E+04    0.15206E+00   -0.50590E-01  1603   0.690E-01    0.509E+00
RMM:  14    -0.117115603389E+04    0.39141E+00   -0.14090E+00  1584   0.130E+00    0.208E+00
RMM:  15    -0.117115786544E+04   -0.18316E-02   -0.38787E-02  1603   0.249E-01    0.133E+00
RMM:  16    -0.117115731388E+04    0.55156E-03   -0.74638E-02  1609   0.244E-01    0.617E-01
RMM:  17    -0.117115552226E+04    0.17916E-02   -0.31726E-02  1584   0.195E-01    0.422E-01
RMM:  18    -0.117115516248E+04    0.35978E-03   -0.19248E-03  1584   0.516E-02    0.251E-01
RMM:  19    -0.117115561674E+04   -0.45425E-03   -0.32021E-03  1260   0.408E-02    0.159E-01
RMM:  20    -0.117115535631E+04    0.26043E-03   -0.63613E-04  1425   0.273E-02    0.993E-02
RMM:  21    -0.117115536918E+04   -0.12876E-04   -0.25472E-04  1081   0.167E-02
   1 F= -.11783208E+04 E0= -.11783208E+04  d E =-.117832E+04  mag=     0.9973
       N       E                     dE             d eps       ncg     rms          rms(c)
DAV:   1    -0.117114930056E+04    0.60557E-02   -0.22211E+00  1692   0.219E+00    0.643E-01
RMM:   2    -0.117115364859E+04   -0.43480E-02   -0.52702E-02  1585   0.305E-01    0.627E-01
RMM:   3    -0.117115343324E+04    0.21535E-03   -0.32432E-03  1624   0.634E-02    0.581E-01
RMM:   4    -0.117115179347E+04    0.16398E-02   -0.44738E-03  1586   0.776E-02    0.259E-01
RMM:   5    -0.117115194344E+04   -0.14998E-03   -0.21257E-03  1584   0.533E-02    0.885E-02
RMM:   6    -0.117115180275E+04    0.14069E-03   -0.25544E-04  1139   0.181E-02    0.518E-02
RMM:   7    -0.117115176500E+04    0.37757E-04   -0.13035E-04  1010   0.140E-02
   2 F= -.11783183E+04 E0= -.11783183E+04  d E =0.242916E-02  mag=     1.0000
       N       E                     dE             d eps       ncg     rms          rms(c)
DAV:   1    -0.117115692396E+04   -0.51212E-02   -0.73301E-01  1692   0.126E+00    0.373E-01
RMM:   2    -0.117115814133E+04   -0.12174E-02   -0.15704E-02  1589   0.169E-01    0.363E-01
RMM:   3    -0.117115802181E+04    0.11952E-03   -0.88851E-04  1328   0.344E-02    0.332E-01
RMM:   4    -0.117115744779E+04    0.57402E-03   -0.19161E-03  1584   0.510E-02    0.123E-01
RMM:   5    -0.117115749725E+04   -0.49462E-04   -0.43746E-04  1351   0.251E-02
   3 F= -.11783234E+04 E0= -.11783234E+04  d E =-.263338E-02  mag=     1.0000
       N       E                     dE             d eps       ncg     rms          rms(c)
DAV:   1    -0.117115938903E+04   -0.19412E-02   -0.63011E-01  1692   0.124E+00    0.366E-01
RMM:   2    -0.117115966833E+04   -0.27930E-03   -0.13374E-02  1584   0.167E-01    0.312E-01
RMM:   3    -0.117115870634E+04    0.96199E-03   -0.11123E-03  1594   0.422E-02    0.249E-01
RMM:   4    -0.117115758677E+04    0.11196E-02   -0.29425E-03  1584   0.604E-02    0.113E-01
RMM:   5    -0.117115758707E+04   -0.30101E-06   -0.72221E-04  1532   0.297E-02
   4 F= -.11783237E+04 E0= -.11783237E+04  d E =-.305868E-03  mag=     1.0000
       N       E                     dE             d eps       ncg     rms          rms(c)
DAV:   1    -0.117115899913E+04   -0.14124E-02   -0.13274E-01  1728   0.569E-01    0.162E-01
RMM:   2    -0.117115896228E+04    0.36844E-04   -0.25853E-03  1582   0.744E-02    0.139E-01
RMM:   3    -0.117115869215E+04    0.27013E-03   -0.23958E-04  1089   0.206E-02    0.107E-01
RMM:   4    -0.117115842488E+04    0.26728E-03   -0.83673E-04  1576   0.324E-02    0.476E-02
RMM:   5    -0.117115842754E+04   -0.26674E-05   -0.11896E-04   998   0.129E-02
   5 F= -.11783244E+04 E0= -.11783244E+04  d E =-.104826E-02  mag=     1.0000
       N       E                     dE             d eps       ncg     rms          rms(c)
DAV:   1    -0.117115854893E+04   -0.12406E-03   -0.19965E-01  1728   0.711E-01    0.113E-01
RMM:   2    -0.117115880852E+04   -0.25959E-03   -0.44800E-03  1584   0.101E-01    0.108E-01
RMM:   3    -0.117115873442E+04    0.74095E-04   -0.17346E-04  1108   0.193E-02
   6 F= -.11783249E+04 E0= -.11783249E+04  d E =-.443081E-03  mag=     1.0000
       N       E                     dE             d eps       ncg     rms          rms(c)
DAV:   1    -0.117115864043E+04    0.16809E-03   -0.11800E-02  1728   0.172E-01    0.374E-02
RMM:   2    -0.117115870570E+04   -0.65266E-04   -0.61482E-04  1377   0.385E-02
   7 F= -.11783248E+04 E0= -.11783248E+04  d E =-.386438E-03  mag=     1.0000
