       N       E                     dE             d eps       ncg     rms          rms(c)
DAV:   1     0.492915844659E+04    0.49292E+04   -0.17017E+05  1760   0.935E+02
DAV:   2    -0.282327752142E+02   -0.49574E+04   -0.45155E+04  2464   0.216E+02
DAV:   3    -0.119573442242E+04   -0.11675E+04   -0.11566E+04  2016   0.115E+02
DAV:   4    -0.124627300248E+04   -0.50539E+02   -0.50229E+02  1984   0.319E+01
DAV:   5    -0.124772044754E+04   -0.14474E+01   -0.14443E+01  2336   0.535E+00    0.761E+01
RMM:   6    -0.123698620630E+04    0.10734E+02   -0.81963E+01  1637   0.145E+01    0.821E+01
RMM:   7    -0.121528486192E+04    0.21701E+02   -0.12770E+01  1537   0.604E+00    0.510E+01
RMM:   8    -0.120129027639E+04    0.13995E+02   -0.94774E+00  1542   0.445E+00    0.402E+01
RMM:   9    -0.118173389925E+04    0.19556E+02   -0.22305E+01  1618   0.595E+00    0.281E+01
RMM:  10    -0.116974957958E+04    0.11984E+02   -0.21042E+01  1577   0.601E+00    0.190E+01
RMM:  11    -0.116909248308E+04    0.65710E+00   -0.14814E+01  1568   0.522E+00    0.106E+01
RMM:  12    -0.116977275413E+04   -0.68027E+00   -0.31284E+00  1767   0.288E+00    0.711E+00
RMM:  13    -0.116937729233E+04    0.39546E+00   -0.35753E-01  1548   0.964E-01    0.553E+00
RMM:  14    -0.116904955062E+04    0.32774E+00   -0.98287E-01  1545   0.130E+00    0.210E+00
RMM:  15    -0.116898515011E+04    0.64401E-01   -0.31885E-01  1561   0.831E-01    0.978E-01
RMM:  16    -0.116898377778E+04    0.13723E-02   -0.61904E-02  1721   0.388E-01    0.618E-01
RMM:  17    -0.116898468051E+04   -0.90272E-03   -0.10023E-02  1644   0.172E-01    0.456E-01
RMM:  18    -0.116898514678E+04   -0.46627E-03   -0.47815E-03  1662   0.963E-02    0.334E-01
RMM:  19    -0.116898559879E+04   -0.45201E-03   -0.30755E-03  1630   0.795E-02    0.233E-01
RMM:  20    -0.116898552306E+04    0.75738E-04   -0.78054E-04  1620   0.400E-02    0.144E-01
RMM:  21    -0.116898567692E+04   -0.15386E-03   -0.91282E-04  1542   0.384E-02    0.114E-01
RMM:  22    -0.116898557109E+04    0.10583E-03   -0.23859E-04  1539   0.242E-02    0.434E-02
RMM:  23    -0.116898557966E+04   -0.85717E-05   -0.18282E-04  1542   0.174E-02    0.320E-02
RMM:  24    -0.116898557742E+04    0.22384E-05   -0.35008E-05  1548   0.990E-03    0.223E-02
RMM:  25    -0.116898558240E+04   -0.49792E-05   -0.20539E-05  1624   0.669E-03    0.192E-02
RMM:  26    -0.116898558264E+04   -0.23749E-06   -0.50489E-06  1296   0.364E-03
   1 F= -.11760485E+04 E0= -.11760485E+04  d E =-.117605E+04  mag=    -0.0001
       N       E                     dE             d eps       ncg     rms          rms(c)
DAV:   1    -0.116898497381E+04    0.60860E-03   -0.22619E-01  1632   0.779E-01    0.138E-01
RMM:   2    -0.116898536792E+04   -0.39412E-03   -0.57541E-03  1548   0.123E-01    0.125E-01
RMM:   3    -0.116898542466E+04   -0.56736E-04   -0.14555E-03  1863   0.572E-02    0.117E-01
RMM:   4    -0.116898532675E+04    0.97904E-04   -0.19889E-04  1750   0.211E-02    0.103E-01
RMM:   5    -0.116898512358E+04    0.20317E-03   -0.10367E-03  1536   0.381E-02    0.418E-02
RMM:   6    -0.116898513079E+04   -0.72039E-05   -0.16696E-04  1683   0.195E-02    0.351E-02
RMM:   7    -0.116898511267E+04    0.18119E-04   -0.36454E-05  1563   0.888E-03    0.225E-02
RMM:   8    -0.116898511465E+04   -0.19778E-05   -0.23536E-05  1650   0.664E-03    0.131E-02
RMM:   9    -0.116898511488E+04   -0.23106E-06   -0.54972E-06  1396   0.350E-03
   2 F= -.11760485E+04 E0= -.11760485E+04  d E =0.364833E-05  mag=     0.0000
       N       E                     dE             d eps       ncg     rms          rms(c)
DAV:   1    -0.116898582359E+04   -0.70894E-03   -0.57277E-02  1728   0.390E-01    0.696E-02
RMM:   2    -0.116898588564E+04   -0.62049E-04   -0.11292E-03  1536   0.588E-02    0.623E-02
RMM:   3    -0.116898588836E+04   -0.27254E-05   -0.27535E-04  1813   0.267E-02    0.573E-02
RMM:   4    -0.116898585779E+04    0.30579E-04   -0.47337E-05  1661   0.105E-02    0.487E-02
RMM:   5    -0.116898580744E+04    0.50343E-04   -0.23941E-04  1536   0.187E-02    0.199E-02
RMM:   6    -0.116898580913E+04   -0.16866E-05   -0.34978E-05  1727   0.932E-03    0.165E-02
RMM:   7    -0.116898580589E+04    0.32428E-05   -0.82767E-06  1519   0.427E-03    0.104E-02
RMM:   8    -0.116898580605E+04   -0.16216E-06   -0.43845E-06  1423   0.312E-03
   3 F= -.11760490E+04 E0= -.11760490E+04  d E =-.453536E-03  mag=     0.0000
