       N       E                     dE             d eps       ncg     rms          rms(c)
DAV:   1     0.468655844677E+04    0.46866E+04   -0.17565E+05  1908   0.910E+02
DAV:   2    -0.103615490626E+03   -0.47902E+04   -0.43654E+04  2520   0.205E+02
DAV:   3    -0.118696844664E+04   -0.10834E+04   -0.10779E+04  2160   0.106E+02
DAV:   4    -0.122900389100E+04   -0.42035E+02   -0.41836E+02  2016   0.275E+01
DAV:   5    -0.123008038659E+04   -0.10765E+01   -0.10738E+01  2304   0.407E+00    0.668E+01
RMM:   6    -0.121969294457E+04    0.10387E+02   -0.36413E+01  1596   0.586E+00    0.533E+01
RMM:   7    -0.120288423197E+04    0.16809E+02   -0.70966E+00  1585   0.308E+00    0.443E+01
RMM:   8    -0.118791239128E+04    0.14972E+02   -0.52830E+01  1584   0.828E+00    0.420E+01
RMM:   9    -0.116465663803E+04    0.23256E+02   -0.15552E+01  1591   0.422E+00    0.225E+01
RMM:  10    -0.116501600787E+04   -0.35937E+00   -0.51142E+00  1590   0.258E+00    0.155E+01
RMM:  11    -0.116545755361E+04   -0.44155E+00   -0.98437E+00  1584   0.355E+00    0.835E+00
RMM:  12    -0.116402300908E+04    0.14345E+01   -0.15932E+00  1590   0.119E+00    0.559E+00
RMM:  13    -0.116376287424E+04    0.26013E+00   -0.23122E-01  1587   0.546E-01    0.336E+00
RMM:  14    -0.116376366623E+04   -0.79199E-03   -0.76745E-01  1584   0.959E-01    0.263E+00
RMM:  15    -0.116368825890E+04    0.75407E-01   -0.31404E-02  1630   0.199E-01    0.186E+00
RMM:  16    -0.116367373862E+04    0.14520E-01   -0.12985E-02  1607   0.113E-01    0.155E+00
RMM:  17    -0.116365148133E+04    0.22257E-01   -0.12026E-02  1584   0.117E-01    0.135E+00
RMM:  18    -0.116363809394E+04    0.13387E-01   -0.44545E-03  1584   0.664E-02    0.113E+00
RMM:  19    -0.116361673174E+04    0.21362E-01   -0.10638E-02  1587   0.791E-02    0.544E-01
RMM:  20    -0.116361147038E+04    0.52614E-02   -0.36277E-03  1516   0.454E-02    0.331E-01
RMM:  21    -0.116361087289E+04    0.59749E-03   -0.50860E-04  1165   0.182E-02    0.294E-01
RMM:  22    -0.116361014223E+04    0.73066E-03   -0.27120E-04  1160   0.180E-02    0.240E-01
RMM:  23    -0.116360929234E+04    0.84989E-03   -0.61250E-04  1297   0.245E-02    0.136E-01
RMM:  24    -0.116360898850E+04    0.30383E-03   -0.33783E-04  1134   0.165E-02    0.724E-02
RMM:  25    -0.116360893708E+04    0.51421E-04   -0.13653E-04  1048   0.120E-02
   1 F= -.11706574E+04 E0= -.11706560E+04  d E =-.117066E+04  mag=     0.0006
       N       E                     dE             d eps       ncg     rms          rms(c)
DAV:   1    -0.116359084458E+04    0.18144E-01   -0.38049E+00  1764   0.327E+00    0.819E-01
RMM:   2    -0.116361043227E+04   -0.19588E-01   -0.22114E-01  1589   0.560E-01    0.847E-01
RMM:   3    -0.116360601758E+04    0.44147E-02   -0.96802E-03  1912   0.109E-01    0.812E-01
RMM:   4    -0.116360549587E+04    0.52170E-03   -0.81395E-04  1242   0.307E-02    0.757E-01
RMM:   5    -0.116360331719E+04    0.21787E-02   -0.96416E-03  1584   0.108E-01    0.213E-01
RMM:   6    -0.116360357298E+04   -0.25580E-03   -0.12804E-03  1588   0.415E-02    0.104E-01
RMM:   7    -0.116360327110E+04    0.30189E-03   -0.16406E-03  1547   0.402E-02    0.424E-02
RMM:   8    -0.116360326088E+04    0.10216E-04   -0.11111E-04  1025   0.123E-02
   2 F= -.11706521E+04 E0= -.11706514E+04  d E =0.532284E-02  mag=     0.0006
       N       E                     dE             d eps       ncg     rms          rms(c)
DAV:   1    -0.116360901743E+04   -0.57463E-02   -0.13742E+00  1764   0.197E+00    0.486E-01
RMM:   2    -0.116361556445E+04   -0.65470E-02   -0.75944E-02  1586   0.326E-01    0.512E-01
RMM:   3    -0.116361386153E+04    0.17029E-02   -0.29035E-03  1588   0.611E-02    0.488E-01
RMM:   4    -0.116361375886E+04    0.10267E-03   -0.32444E-04  1106   0.186E-02    0.471E-01
RMM:   5    -0.116361278872E+04    0.97014E-03   -0.25921E-03  1584   0.556E-02    0.196E-01
RMM:   6    -0.116361287530E+04   -0.86580E-04   -0.10864E-03  1584   0.373E-02    0.689E-02
RMM:   7    -0.116361275650E+04    0.11880E-03   -0.24679E-04  1098   0.166E-02    0.391E-02
RMM:   8    -0.116361275802E+04   -0.15238E-05   -0.38181E-05  1002   0.845E-03
   3 F= -.11706614E+04 E0= -.11706604E+04  d E =-.396415E-02  mag=     0.0026
       N       E                     dE             d eps       ncg     rms          rms(c)
DAV:   1    -0.116361111084E+04    0.16457E-02   -0.87246E-01  1728   0.163E+00    0.342E-01
RMM:   2    -0.116361612683E+04   -0.50160E-02   -0.58198E-02  1600   0.276E-01    0.308E-01
RMM:   3    -0.116361466799E+04    0.14588E-02   -0.20932E-03  1446   0.521E-02    0.286E-01
RMM:   4    -0.116361403160E+04    0.63639E-03   -0.66034E-04  1488   0.290E-02    0.219E-01
RMM:   5    -0.116361357005E+04    0.46156E-03   -0.32638E-03  1584   0.628E-02    0.675E-02
RMM:   6    -0.116361356191E+04    0.81406E-05   -0.11473E-04  1061   0.151E-02
   4 F= -.11706618E+04 E0= -.11706609E+04  d E =-.475851E-03  mag=     0.0054
       N       E                     dE             d eps       ncg     rms          rms(c)
DAV:   1    -0.116361380650E+04   -0.23645E-03   -0.19547E-01  1800   0.774E-01    0.150E-01
RMM:   2    -0.116361483900E+04   -0.10325E-02   -0.12394E-02  1605   0.127E-01    0.140E-01
RMM:   3    -0.116361452962E+04    0.30938E-03   -0.42373E-04  1119   0.238E-02    0.130E-01
RMM:   4    -0.116361436805E+04    0.16157E-03   -0.16821E-04  1025   0.166E-02    0.993E-02
RMM:   5    -0.116361425877E+04    0.10928E-03   -0.87715E-04  1572   0.333E-02    0.402E-02
RMM:   6    -0.116361428241E+04   -0.23643E-04   -0.25249E-05  1004   0.717E-03
   5 F= -.11706627E+04 E0= -.11706617E+04  d E =-.135292E-02  mag=     0.0084
       N       E                     dE             d eps       ncg     rms          rms(c)
DAV:   1    -0.116361306627E+04    0.11925E-02   -0.39220E-01  1800   0.110E+00    0.153E-01
RMM:   2    -0.116361569555E+04   -0.26293E-02   -0.28818E-02  1610   0.185E-01    0.130E-01
RMM:   3    -0.116361509191E+04    0.60364E-03   -0.97003E-04  1224   0.328E-02    0.118E-01
RMM:   4    -0.116361491516E+04    0.17676E-03   -0.31930E-04  1142   0.212E-02    0.972E-02
RMM:   5    -0.116361487280E+04    0.42354E-04   -0.81499E-04  1553   0.322E-02
   6 F= -.11706632E+04 E0= -.11706621E+04  d E =-.527825E-03  mag=     0.0134
       N       E                     dE             d eps       ncg     rms          rms(c)
DAV:   1    -0.116361487455E+04    0.40608E-04   -0.48985E-02  1800   0.387E-01    0.641E-02
RMM:   2    -0.116361520950E+04   -0.33496E-03   -0.35047E-03  1459   0.639E-02    0.557E-02
RMM:   3    -0.116361514722E+04    0.62288E-04   -0.12260E-04  1029   0.129E-02
   7 F= -.11706635E+04 E0= -.11706625E+04  d E =-.823718E-03  mag=     0.0145
