       N       E                     dE             d eps       ncg     rms          rms(c)
DAV:   1     0.489220721914E+04    0.48922E+04   -0.16765E+05  1800   0.898E+02
DAV:   2    -0.660497342490E+02   -0.49583E+04   -0.45054E+04  2556   0.209E+02
DAV:   3    -0.118822690128E+04   -0.11222E+04   -0.11161E+04  2160   0.110E+02
DAV:   4    -0.123381991274E+04   -0.45593E+02   -0.45364E+02  2052   0.297E+01
DAV:   5    -0.123510758615E+04   -0.12877E+01   -0.12850E+01  2268   0.464E+00    0.674E+01
RMM:   6    -0.122013303472E+04    0.14975E+02   -0.23449E+01  1596   0.537E+00    0.522E+01
RMM:   7    -0.120169157155E+04    0.18441E+02   -0.11218E+01  1584   0.398E+00    0.412E+01
RMM:   8    -0.117408860330E+04    0.27603E+02   -0.45881E+01  1584   0.789E+00    0.259E+01
RMM:   9    -0.116859328933E+04    0.54953E+01   -0.13893E+01  1584   0.484E+00    0.173E+01
RMM:  10    -0.117040265143E+04   -0.18094E+01   -0.13049E+01  1584   0.428E+00    0.917E+00
RMM:  11    -0.116961872257E+04    0.78393E+00   -0.16109E+00  1621   0.199E+00    0.665E+00
RMM:  12    -0.116909391320E+04    0.52481E+00   -0.10387E+00  1598   0.106E+00    0.507E+00
RMM:  13    -0.116876406597E+04    0.32985E+00   -0.14747E+00  1584   0.141E+00    0.156E+00
RMM:  14    -0.116873006318E+04    0.34003E-01   -0.49513E-02  1623   0.470E-01    0.131E+00
RMM:  15    -0.116872376884E+04    0.62943E-02   -0.12485E-02  1604   0.123E-01    0.111E+00
RMM:  16    -0.116872488799E+04   -0.11191E-02   -0.74637E-03  1621   0.110E-01    0.801E-01
RMM:  17    -0.116872123369E+04    0.36543E-02   -0.42197E-03  1679   0.852E-02    0.460E-01
RMM:  18    -0.116872097024E+04    0.26346E-03   -0.82807E-04  1354   0.352E-02    0.345E-01
RMM:  19    -0.116871973634E+04    0.12339E-02   -0.11545E-03  1402   0.377E-02    0.155E-01
RMM:  20    -0.116871947370E+04    0.26265E-03   -0.51225E-04  1200   0.247E-02    0.773E-02
RMM:  21    -0.116871945782E+04    0.15882E-04   -0.94637E-05  1062   0.152E-02
   1 F= -.11759966E+04 E0= -.11759966E+04  d E =-.117600E+04  mag=     0.0015
       N       E                     dE             d eps       ncg     rms          rms(c)
DAV:   1    -0.116871891485E+04    0.55885E-03   -0.33441E-01  1692   0.927E-01    0.144E-01
RMM:   2    -0.116871959062E+04   -0.67577E-03   -0.90636E-03  1611   0.138E-01    0.149E-01
RMM:   3    -0.116871960336E+04   -0.12737E-04   -0.67002E-04  1433   0.463E-02
   2 F= -.11759968E+04 E0= -.11759968E+04  d E =-.242296E-03  mag=     0.0007
       N       E                     dE             d eps       ncg     rms          rms(c)
DAV:   1    -0.116871991201E+04   -0.32139E-03   -0.61521E-02  1656   0.397E-01    0.137E-01
RMM:   2    -0.116872006285E+04   -0.15084E-03   -0.14838E-03  1586   0.579E-02    0.106E-01
RMM:   3    -0.116872004060E+04    0.22253E-04   -0.19388E-04  1066   0.233E-02
   3 F= -.11759972E+04 E0= -.11759972E+04  d E =-.636769E-03  mag=    -0.0002
