       N       E                     dE             d eps       ncg     rms          rms(c)
DAV:   1     0.483778105849E+04    0.48378E+04   -0.17007E+05  1872   0.903E+02
DAV:   2    -0.587039721221E+02   -0.48965E+04   -0.44434E+04  2520   0.205E+02
DAV:   3    -0.118181015459E+04   -0.11231E+04   -0.11164E+04  2160   0.109E+02
DAV:   4    -0.122571670861E+04   -0.43907E+02   -0.43695E+02  2052   0.283E+01
DAV:   5    -0.122682536483E+04   -0.11087E+01   -0.11057E+01  2268   0.414E+00    0.661E+01
RMM:   6    -0.121341968418E+04    0.13406E+02   -0.28411E+01  1584   0.494E+00    0.622E+01
RMM:   7    -0.120391784542E+04    0.95018E+01   -0.29076E+00  1584   0.207E+00    0.463E+01
RMM:   8    -0.118658014401E+04    0.17338E+02   -0.11414E+01  1584   0.394E+00    0.352E+01
RMM:   9    -0.116459465173E+04    0.21985E+02   -0.38694E+01  1584   0.712E+00    0.215E+01
RMM:  10    -0.116370788649E+04    0.88677E+00   -0.30937E+01  1584   0.627E+00    0.850E+00
RMM:  11    -0.116326897494E+04    0.43891E+00   -0.65204E-01  1636   0.114E+00    0.728E+00
RMM:  12    -0.116286501782E+04    0.40396E+00   -0.27336E+00  1584   0.162E+00    0.323E+00
RMM:  13    -0.116252544813E+04    0.33957E+00   -0.44664E-01  1586   0.579E-01    0.172E+00
RMM:  14    -0.116246667114E+04    0.58777E-01   -0.10712E-01  1584   0.368E-01    0.848E-01
RMM:  15    -0.116245981780E+04    0.68533E-02   -0.28057E-02  1585   0.194E-01    0.336E-01
RMM:  16    -0.116245927988E+04    0.53792E-03   -0.75723E-03  1590   0.103E-01    0.208E-01
RMM:  17    -0.116246013791E+04   -0.85803E-03   -0.27215E-03  1590   0.646E-02    0.169E-01
RMM:  18    -0.116245995091E+04    0.18700E-03   -0.10159E-03  1544   0.387E-02    0.110E-01
RMM:  19    -0.116245986637E+04    0.84540E-04   -0.45912E-04  1264   0.236E-02
   1 F= -.11694998E+04 E0= -.11694998E+04  d E =-.116950E+04  mag=     0.0016
       N       E                     dE             d eps       ncg     rms          rms(c)
DAV:   1    -0.116245466960E+04    0.52813E-02   -0.23993E+00  1656   0.218E+00    0.689E-01
RMM:   2    -0.116245923148E+04   -0.45619E-02   -0.55664E-02  1585   0.305E-01    0.686E-01
RMM:   3    -0.116245913956E+04    0.91922E-04   -0.35807E-03  1575   0.635E-02    0.656E-01
RMM:   4    -0.116245714818E+04    0.19914E-02   -0.37185E-03  1586   0.707E-02    0.343E-01
RMM:   5    -0.116245725879E+04   -0.11060E-03   -0.39772E-03  1584   0.717E-02    0.896E-02
RMM:   6    -0.116245704450E+04    0.21429E-03   -0.19115E-04  1100   0.168E-02    0.675E-02
RMM:   7    -0.116245693418E+04    0.11032E-03   -0.62643E-04  1433   0.266E-02    0.285E-02
RMM:   8    -0.116245693386E+04    0.31485E-06   -0.28804E-05  1005   0.717E-03
   2 F= -.11694975E+04 E0= -.11694975E+04  d E =0.223393E-02  mag=    -0.0000
       N       E                     dE             d eps       ncg     rms          rms(c)
DAV:   1    -0.116246166880E+04   -0.47346E-02   -0.80013E-01  1764   0.126E+00    0.399E-01
RMM:   2    -0.116246305337E+04   -0.13846E-02   -0.17260E-02  1588   0.172E-01    0.399E-01
RMM:   3    -0.116246301587E+04    0.37499E-04   -0.99422E-04  1329   0.345E-02
   3 F= -.11695032E+04 E0= -.11695032E+04  d E =-.345075E-02  mag=     0.0000
       N       E                     dE             d eps       ncg     rms          rms(c)
DAV:   1    -0.116246134385E+04    0.17095E-02   -0.53810E-01  1656   0.116E+00    0.362E-01
RMM:   2    -0.116246192672E+04   -0.58287E-03   -0.14466E-02  1584   0.181E-01    0.340E-01
RMM:   3    -0.116246104780E+04    0.87892E-03   -0.84853E-04  1553   0.381E-02    0.291E-01
RMM:   4    -0.116245966989E+04    0.13779E-02   -0.83529E-03  1584   0.101E-01    0.867E-02
RMM:   5    -0.116245958153E+04    0.88357E-04   -0.16050E-04  1074   0.193E-02
   4 F= -.11694989E+04 E0= -.11694989E+04  d E =0.436788E-02  mag=     0.0000
       N       E                     dE             d eps       ncg     rms          rms(c)
DAV:   1    -0.116246347338E+04   -0.38035E-02   -0.31397E-01  1728   0.886E-01    0.169E-01
RMM:   2    -0.116246382023E+04   -0.34685E-03   -0.74823E-03  1584   0.128E-01    0.154E-01
RMM:   3    -0.116246354079E+04    0.27944E-03   -0.39257E-04  1208   0.265E-02    0.137E-01
RMM:   4    -0.116246287063E+04    0.67016E-03   -0.29034E-03  1584   0.600E-02    0.377E-02
RMM:   5    -0.116246286655E+04    0.40847E-05   -0.55352E-05  1012   0.116E-02
   5 F= -.11695029E+04 E0= -.11695029E+04  d E =0.370171E-03  mag=     0.0000
