       N       E                     dE             d eps       ncg     rms          rms(c)
DAV:   1     0.469615337813E+04    0.46962E+04   -0.18263E+05  1920   0.958E+02
DAV:   2    -0.639988603960E+02   -0.47602E+04   -0.43592E+04  2432   0.216E+02
DAV:   3    -0.120032101226E+04   -0.11363E+04   -0.11302E+04  1984   0.114E+02
DAV:   4    -0.124883721031E+04   -0.48516E+02   -0.48174E+02  1952   0.315E+01
DAV:   5    -0.125013886391E+04   -0.13017E+01   -0.12961E+01  2304   0.485E+00    0.841E+01
RMM:   6    -0.123792152834E+04    0.12217E+02   -0.11109E+02  1654   0.153E+01    0.959E+01
RMM:   7    -0.122461715820E+04    0.13304E+02   -0.17987E+01  1544   0.657E+00    0.714E+01
RMM:   8    -0.120332794924E+04    0.21289E+02   -0.22154E+01  1580   0.603E+00    0.461E+01
RMM:   9    -0.118445743196E+04    0.18871E+02   -0.21716E+01  1612   0.653E+00    0.288E+01
RMM:  10    -0.117774704775E+04    0.67104E+01   -0.79906E+00  1543   0.439E+00    0.231E+01
RMM:  11    -0.117216642516E+04    0.55806E+01   -0.24347E+01  1706   0.626E+00    0.140E+01
RMM:  12    -0.117281078097E+04   -0.64436E+00   -0.39960E+00  1581   0.321E+00    0.884E+00
RMM:  13    -0.117279313589E+04    0.17645E-01   -0.72579E-01  1701   0.142E+00    0.693E+00
RMM:  14    -0.117238950343E+04    0.40363E+00   -0.85712E-01  1544   0.120E+00    0.318E+00
RMM:  15    -0.117235897314E+04    0.30530E-01   -0.40324E-01  1541   0.906E-01    0.268E+00
RMM:  16    -0.117236959335E+04   -0.10620E-01   -0.38953E-02  1541   0.375E-01    0.166E+00
RMM:  17    -0.117236488488E+04    0.47085E-02   -0.37442E-02  1555   0.279E-01    0.768E-01
RMM:  18    -0.117236428662E+04    0.59826E-03   -0.89677E-03  1695   0.146E-01    0.574E-01
RMM:  19    -0.117236441684E+04   -0.13022E-03   -0.26229E-03  1559   0.726E-02    0.430E-01
RMM:  20    -0.117236412295E+04    0.29389E-03   -0.21523E-03  1562   0.609E-02    0.286E-01
RMM:  21    -0.117236406651E+04    0.56440E-04   -0.62284E-04  1625   0.382E-02    0.225E-01
RMM:  22    -0.117236392667E+04    0.13984E-03   -0.27680E-04  1637   0.230E-02    0.162E-01
RMM:  23    -0.117236393494E+04   -0.82614E-05   -0.19893E-04  1558   0.187E-02    0.104E-01
RMM:  24    -0.117236389982E+04    0.35116E-04   -0.98522E-05  1579   0.131E-02    0.674E-02
RMM:  25    -0.117236390751E+04   -0.76888E-05   -0.44314E-05  1700   0.850E-03    0.436E-02
RMM:  26    -0.117236391855E+04   -0.11046E-04   -0.30383E-05  1606   0.685E-03    0.196E-02
RMM:  27    -0.117236392152E+04   -0.29705E-05   -0.68065E-06  1351   0.397E-03    0.104E-02
RMM:  28    -0.117236392304E+04   -0.15157E-05   -0.31536E-06  1122   0.259E-03    0.532E-03
RMM:  29    -0.117236392368E+04   -0.64386E-06   -0.10301E-06  1025   0.170E-03
   1 F= -.11794577E+04 E0= -.11794577E+04  d E =-.117946E+04  mag=    -1.0001
       N       E                     dE             d eps       ncg     rms          rms(c)
DAV:   1    -0.117235819142E+04    0.57316E-02   -0.30020E-01  1760   0.170E+00    0.194E-01
RMM:   2    -0.117236267690E+04   -0.44855E-02   -0.47525E-02  1630   0.266E-01    0.118E-01
RMM:   3    -0.117236301696E+04   -0.34006E-03   -0.53293E-03  1741   0.910E-02    0.101E-01
RMM:   4    -0.117236303842E+04   -0.21461E-04   -0.87224E-04  1837   0.328E-02    0.909E-02
RMM:   5    -0.117236301933E+04    0.19090E-04   -0.20309E-04  1591   0.195E-02    0.582E-02
RMM:   6    -0.117236307619E+04   -0.56860E-04   -0.19739E-04  1573   0.183E-02    0.331E-02
RMM:   7    -0.117236310135E+04   -0.25162E-04   -0.27594E-05  1571   0.938E-03    0.198E-02
RMM:   8    -0.117236312766E+04   -0.26304E-04   -0.17064E-05  1539   0.619E-03    0.113E-02
RMM:   9    -0.117236313161E+04   -0.39533E-05   -0.62242E-06  1445   0.379E-03    0.646E-03
RMM:  10    -0.117236313216E+04   -0.55213E-06   -0.39870E-06  1258   0.288E-03
   2 F= -.11794575E+04 E0= -.11794575E+04  d E =0.197189E-03  mag=    -1.0000
       N       E                     dE             d eps       ncg     rms          rms(c)
DAV:   1    -0.117236261977E+04    0.51184E-03   -0.90562E-02  1792   0.931E-01    0.106E-01
RMM:   2    -0.117236393133E+04   -0.13116E-02   -0.14124E-02  1609   0.144E-01    0.647E-02
RMM:   3    -0.117236402620E+04   -0.94865E-04   -0.16207E-03  1716   0.495E-02    0.549E-02
RMM:   4    -0.117236403170E+04   -0.55038E-05   -0.25104E-04  1841   0.178E-02    0.504E-02
RMM:   5    -0.117236403151E+04    0.19135E-06   -0.58249E-05  1566   0.105E-02    0.329E-02
RMM:   6    -0.117236405933E+04   -0.27815E-04   -0.70347E-05  1544   0.110E-02    0.168E-02
RMM:   7    -0.117236407102E+04   -0.11697E-04   -0.10103E-05  1549   0.556E-03    0.108E-02
RMM:   8    -0.117236408350E+04   -0.12475E-04   -0.63711E-06  1369   0.385E-03    0.623E-03
RMM:   9    -0.117236408463E+04   -0.11314E-05   -0.15645E-06  1032   0.206E-03    0.371E-03
RMM:  10    -0.117236408462E+04    0.10928E-07   -0.12786E-06  1017   0.185E-03
   3 F= -.11794581E+04 E0= -.11794581E+04  d E =-.428729E-03  mag=    -1.0000
       N       E                     dE             d eps       ncg     rms          rms(c)
DAV:   1    -0.117235872857E+04    0.53561E-02   -0.21684E-01  1888   0.162E+00    0.190E-01
RMM:   2    -0.117236370654E+04   -0.49780E-02   -0.52321E-02  1613   0.241E-01    0.962E-02
RMM:   3    -0.117236415504E+04   -0.44850E-03   -0.59097E-03  1676   0.771E-02    0.897E-02
RMM:   4    -0.117236415168E+04    0.33592E-05   -0.34922E-04  1860   0.226E-02    0.826E-02
RMM:   5    -0.117236421009E+04   -0.58410E-04   -0.10350E-04  1548   0.140E-02    0.472E-02
RMM:   6    -0.117236430407E+04   -0.93985E-04   -0.11231E-04  1551   0.140E-02    0.249E-02
RMM:   7    -0.117236432181E+04   -0.17737E-04   -0.14642E-05  1607   0.601E-03    0.193E-02
RMM:   8    -0.117236434169E+04   -0.19880E-04   -0.85948E-06  1394   0.411E-03    0.123E-02
RMM:   9    -0.117236435006E+04   -0.83704E-05   -0.28099E-06  1087   0.265E-03    0.781E-03
RMM:  10    -0.117236435089E+04   -0.82258E-06   -0.33846E-06  1140   0.262E-03
   4 F= -.11794587E+04 E0= -.11794587E+04  d E =-.585267E-03  mag=    -1.0000
       N       E                     dE             d eps       ncg     rms          rms(c)
DAV:   1    -0.117236402534E+04    0.32472E-03   -0.10845E-02  1824   0.361E-01    0.425E-02
RMM:   2    -0.117236425094E+04   -0.22560E-03   -0.25998E-03  1610   0.537E-02    0.216E-02
RMM:   3    -0.117236426921E+04   -0.18269E-04   -0.29348E-04  1630   0.172E-02    0.202E-02
RMM:   4    -0.117236426815E+04    0.10570E-05   -0.17100E-05  1270   0.511E-03    0.186E-02
RMM:   5    -0.117236428561E+04   -0.17454E-04   -0.61722E-06  1293   0.375E-03    0.103E-02
RMM:   6    -0.117236430087E+04   -0.15262E-04   -0.59201E-06  1296   0.353E-03    0.591E-03
RMM:   7    -0.117236430359E+04   -0.27231E-05   -0.82602E-07  1016   0.168E-03    0.465E-03
RMM:   8    -0.117236430587E+04   -0.22733E-05   -0.54992E-07   978   0.128E-03    0.271E-03
RMM:   9    -0.117236430652E+04   -0.65449E-06   -0.12483E-07   925   0.786E-04
   5 F= -.11794588E+04 E0= -.11794588E+04  d E =-.612432E-03  mag=    -1.0000
       N       E                     dE             d eps       ncg     rms          rms(c)
DAV:   1    -0.117236218517E+04    0.21207E-02   -0.99685E-02  1792   0.104E+00    0.123E-01
RMM:   2    -0.117236427770E+04   -0.20925E-02   -0.22307E-02  1620   0.154E-01    0.606E-02
RMM:   3    -0.117236444959E+04   -0.17188E-03   -0.23924E-03  1679   0.494E-02    0.573E-02
RMM:   4    -0.117236445088E+04   -0.12917E-05   -0.14538E-04  1785   0.148E-02    0.530E-02
RMM:   5    -0.117236448483E+04   -0.33958E-04   -0.39625E-05  1549   0.866E-03    0.324E-02
RMM:   6    -0.117236454510E+04   -0.60265E-04   -0.48194E-05  1556   0.926E-03    0.166E-02
RMM:   7    -0.117236455859E+04   -0.13487E-04   -0.58064E-06  1251   0.387E-03    0.127E-02
RMM:   8    -0.117236457373E+04   -0.15138E-04   -0.34851E-06  1078   0.289E-03    0.775E-03
RMM:   9    -0.117236457663E+04   -0.29069E-05   -0.12395E-06  1026   0.183E-03    0.471E-03
RMM:  10    -0.117236457750E+04   -0.87059E-06   -0.12717E-06  1017   0.174E-03
   6 F= -.11794592E+04 E0= -.11794592E+04  d E =-.433928E-03  mag=    -1.0000
       N       E                     dE             d eps       ncg     rms          rms(c)
DAV:   1    -0.117236223702E+04    0.23396E-02   -0.98572E-02  1792   0.103E+00    0.122E-01
RMM:   2    -0.117236430502E+04   -0.20680E-02   -0.22032E-02  1621   0.153E-01    0.605E-02
RMM:   3    -0.117236447577E+04   -0.17075E-03   -0.23531E-03  1676   0.490E-02    0.572E-02
RMM:   4    -0.117236447489E+04    0.88420E-06   -0.15173E-04  1785   0.147E-02    0.532E-02
RMM:   5    -0.117236450958E+04   -0.34692E-04   -0.40856E-05  1556   0.877E-03    0.325E-02
RMM:   6    -0.117236456812E+04   -0.58539E-04   -0.48669E-05  1558   0.929E-03    0.174E-02
RMM:   7    -0.117236458065E+04   -0.12530E-04   -0.59201E-06  1264   0.392E-03    0.134E-02
RMM:   8    -0.117236459641E+04   -0.15758E-04   -0.34972E-06  1078   0.291E-03    0.814E-03
RMM:   9    -0.117236460002E+04   -0.36164E-05   -0.12875E-06  1028   0.184E-03    0.502E-03
RMM:  10    -0.117236460089E+04   -0.87095E-06   -0.14218E-06  1021   0.182E-03
   7 F= -.11794594E+04 E0= -.11794594E+04  d E =-.620191E-03  mag=    -1.0000
