       N       E                     dE             d eps       ncg     rms          rms(c)
DAV:   1     0.488018854067E+04    0.48802E+04   -0.17284E+05  1872   0.911E+02
DAV:   2    -0.567862921631E+02   -0.49370E+04   -0.45064E+04  2520   0.207E+02
DAV:   3    -0.119275127678E+04   -0.11360E+04   -0.11314E+04  2052   0.109E+02
DAV:   4    -0.123957904829E+04   -0.46828E+02   -0.46589E+02  2016   0.295E+01
DAV:   5    -0.124077043773E+04   -0.11914E+01   -0.11881E+01  2232   0.433E+00    0.911E+01
RMM:   6    -0.122752642267E+04    0.13244E+02   -0.78181E+00  1584   0.312E+00    0.799E+01
RMM:   7    -0.118071228434E+04    0.46814E+02   -0.95809E+01  1584   0.110E+01    0.428E+01
RMM:   8    -0.118228782069E+04   -0.15755E+01   -0.16034E+01  1600   0.336E+00    0.496E+01
RMM:   9    -0.119451114446E+04   -0.12223E+02   -0.67940E+01  1584   0.834E+00    0.289E+01
RMM:  10    -0.118470942973E+04    0.98017E+01   -0.29881E+00  1602   0.170E+00    0.243E+01
RMM:  11    -0.117945203254E+04    0.52574E+01   -0.41106E+00  1584   0.144E+00    0.176E+01
RMM:  12    -0.117738404008E+04    0.20680E+01   -0.25986E+00  1598   0.107E+00    0.105E+01
RMM:  13    -0.117668895952E+04    0.69508E+00   -0.54636E-01  1587   0.792E-01    0.937E+00
RMM:  14    -0.117582945450E+04    0.85951E+00   -0.92696E-01  1584   0.102E+00    0.577E+00
RMM:  15    -0.117577698176E+04    0.52473E-01   -0.49068E-02  1654   0.228E-01    0.546E+00
RMM:  16    -0.117577579261E+04    0.11891E-02   -0.28174E-03  1686   0.618E-02    0.544E+00
RMM:  17    -0.117566137861E+04    0.11441E+00   -0.23240E-02  1584   0.134E-01    0.449E+00
RMM:  18    -0.117546488165E+04    0.19650E+00   -0.25322E-01  1584   0.304E-01    0.222E+00
RMM:  19    -0.117546810961E+04   -0.32280E-02   -0.12465E-02  1645   0.689E-02    0.243E+00
RMM:  20    -0.117547071677E+04   -0.26072E-02   -0.38933E-02  1587   0.102E-01    0.262E+00
RMM:  21    -0.117546837819E+04    0.23386E-02   -0.28777E-03  1483   0.417E-02    0.196E+00
RMM:  22    -0.117546508321E+04    0.32950E-02   -0.64183E-04  1214   0.220E-02    0.149E+00
RMM:  23    -0.117546481316E+04    0.27005E-03   -0.44085E-04  1271   0.226E-02    0.111E+00
RMM:  24    -0.117546423437E+04    0.57879E-03   -0.62774E-04  1130   0.215E-02    0.651E-01
RMM:  25    -0.117546263154E+04    0.16028E-02   -0.14614E-03  1113   0.205E-02    0.277E-01
RMM:  26    -0.117546250955E+04    0.12199E-03   -0.41289E-04  1065   0.160E-02    0.149E-01
RMM:  27    -0.117546253686E+04   -0.27309E-04   -0.49612E-05  1015   0.893E-03
   1 F= -.11828174E+04 E0= -.11828174E+04  d E =-.118282E+04  mag=     0.0039
       N       E                     dE             d eps       ncg     rms          rms(c)
DAV:   1    -0.117546011844E+04    0.23911E-02   -0.94365E-01  1620   0.125E+00    0.147E+00
RMM:   2    -0.117546194399E+04   -0.18255E-02   -0.25891E-02  1584   0.181E-01    0.131E+00
RMM:   3    -0.117546112834E+04    0.81565E-03   -0.19131E-03  1617   0.477E-02    0.103E+00
RMM:   4    -0.117546149069E+04   -0.36235E-03   -0.79815E-03  1584   0.841E-02    0.291E-01
RMM:   5    -0.117546083935E+04    0.65134E-03   -0.59301E-04  1222   0.224E-02    0.181E-01
RMM:   6    -0.117546078070E+04    0.58653E-04   -0.20709E-04  1047   0.128E-02
   2 F= -.11828166E+04 E0= -.11828166E+04  d E =0.753510E-03  mag=    -0.0004
       N       E                     dE             d eps       ncg     rms          rms(c)
DAV:   1    -0.117546321666E+04   -0.23773E-02   -0.30534E-01  1620   0.710E-01    0.870E-01
RMM:   2    -0.117546372146E+04   -0.50480E-03   -0.84586E-03  1584   0.102E-01    0.758E-01
RMM:   3    -0.117546325080E+04    0.47066E-03   -0.10028E-03  1503   0.335E-02    0.534E-01
RMM:   4    -0.117546343394E+04   -0.18315E-03   -0.28274E-03  1581   0.492E-02    0.202E-01
RMM:   5    -0.117546316766E+04    0.26628E-03   -0.33631E-04  1079   0.156E-02    0.112E-01
RMM:   6    -0.117546315436E+04    0.13309E-04   -0.91899E-05  1016   0.881E-03
   3 F= -.11828184E+04 E0= -.11828184E+04  d E =-.105053E-02  mag=     0.0000
       N       E                     dE             d eps       ncg     rms          rms(c)
DAV:   1    -0.117546466486E+04   -0.14972E-02   -0.36521E-01  1656   0.933E-01    0.476E-01
RMM:   2    -0.117546506917E+04   -0.40431E-03   -0.74193E-03  1584   0.120E-01    0.388E-01
RMM:   3    -0.117546484804E+04    0.22112E-03   -0.44860E-04  1235   0.283E-02    0.318E-01
RMM:   4    -0.117546464678E+04    0.20126E-03   -0.14578E-03  1576   0.405E-02    0.931E-02
RMM:   5    -0.117546466054E+04   -0.13762E-04   -0.13310E-04  1080   0.143E-02
   4 F= -.11828197E+04 E0= -.11828197E+04  d E =-.130394E-02  mag=    -0.0000
       N       E                     dE             d eps       ncg     rms          rms(c)
DAV:   1    -0.117546465869E+04   -0.11905E-04   -0.22370E-04  1548   0.228E-02    0.365E-02
RMM:   2    -0.117546464996E+04    0.87241E-05   -0.20017E-05   930   0.702E-03
   5 F= -.11828197E+04 E0= -.11828197E+04  d E =-.128900E-02  mag=    -0.0000
       N       E                     dE             d eps       ncg     rms          rms(c)
DAV:   1    -0.117546536848E+04   -0.70979E-03   -0.15396E-01  1728   0.613E-01    0.139E-01
RMM:   2    -0.117546553753E+04   -0.16905E-03   -0.26096E-03  1584   0.756E-02    0.128E-01
RMM:   3    -0.117546551712E+04    0.20407E-04   -0.12973E-04  1083   0.171E-02
   6 F= -.11828206E+04 E0= -.11828206E+04  d E =-.869359E-03  mag=     0.0000
       N       E                     dE             d eps       ncg     rms          rms(c)
DAV:   1    -0.117546462149E+04    0.91603E-03   -0.79660E-01  1728   0.140E+00    0.304E-01
RMM:   2    -0.117546551132E+04   -0.88983E-03   -0.12508E-02  1584   0.165E-01    0.275E-01
RMM:   3    -0.117546542653E+04    0.84785E-04   -0.79976E-04  1390   0.382E-02
   7 F= -.11828205E+04 E0= -.11828205E+04  d E =-.787772E-03  mag=    -0.0000
