       N       E                     dE             d eps       ncg     rms          rms(c)
DAV:   1     0.500297199454E+04    0.50030E+04   -0.17620E+05  1872   0.928E+02
DAV:   2    -0.390391642596E+02   -0.50420E+04   -0.46192E+04  2592   0.210E+02
DAV:   3    -0.120302417694E+04   -0.11640E+04   -0.11598E+04  2124   0.111E+02
DAV:   4    -0.124908212083E+04   -0.46058E+02   -0.45792E+02  2052   0.289E+01
DAV:   5    -0.125020633886E+04   -0.11242E+01   -0.11218E+01  2376   0.410E+00    0.823E+01
RMM:   6    -0.123740679686E+04    0.12800E+02   -0.72912E+00  1584   0.313E+00    0.726E+01
RMM:   7    -0.118908278331E+04    0.48324E+02   -0.93695E+01  1584   0.110E+01    0.489E+01
RMM:   8    -0.118558308138E+04    0.34997E+01   -0.27467E+01  1584   0.603E+00    0.273E+01
RMM:   9    -0.118988781620E+04   -0.43047E+01   -0.23732E+01  1584   0.551E+00    0.124E+01
RMM:  10    -0.118563927556E+04    0.42485E+01   -0.73203E+00  1584   0.304E+00    0.631E+00
RMM:  11    -0.118555565590E+04    0.83620E-01   -0.68327E-01  1585   0.940E-01    0.329E+00
RMM:  12    -0.118543128267E+04    0.12437E+00   -0.38218E-01  1584   0.627E-01    0.155E+00
RMM:  13    -0.118538930806E+04    0.41975E-01   -0.24637E-01  1584   0.558E-01    0.657E-01
RMM:  14    -0.118538843510E+04    0.87297E-03   -0.21739E-02  1584   0.167E-01    0.490E-01
RMM:  15    -0.118538795827E+04    0.47682E-03   -0.97985E-03  1603   0.101E-01    0.706E-01
RMM:  16    -0.118538649174E+04    0.14665E-02   -0.46844E-03  1584   0.775E-02    0.251E-01
RMM:  17    -0.118538673910E+04   -0.24736E-03   -0.50040E-04  1373   0.262E-02    0.158E-01
RMM:  18    -0.118538667193E+04    0.67166E-04   -0.91358E-04  1573   0.333E-02
   1 F= -.11928299E+04 E0= -.11928299E+04  d E =-.119283E+04  mag=     0.0004
       N       E                     dE             d eps       ncg     rms          rms(c)
DAV:   1    -0.118538426253E+04    0.24766E-02   -0.70774E-01  1656   0.130E+00    0.546E-01
RMM:   2    -0.118538592251E+04   -0.16600E-02   -0.23332E-02  1584   0.202E-01    0.485E-01
RMM:   3    -0.118538548017E+04    0.44233E-03   -0.10821E-03  1592   0.421E-02    0.413E-01
RMM:   4    -0.118538513699E+04    0.34318E-03   -0.24088E-03  1584   0.533E-02    0.173E-01
RMM:   5    -0.118538531341E+04   -0.17642E-03   -0.76041E-04  1566   0.314E-02    0.848E-02
RMM:   6    -0.118538519286E+04    0.12055E-03   -0.50988E-04  1386   0.214E-02    0.316E-02
RMM:   7    -0.118538519243E+04    0.43560E-06   -0.24561E-05   998   0.675E-03
   2 F= -.11928295E+04 E0= -.11928295E+04  d E =0.391867E-03  mag=    -0.0000
       N       E                     dE             d eps       ncg     rms          rms(c)
DAV:   1    -0.118538723013E+04   -0.20373E-02   -0.21817E-01  1764   0.721E-01    0.304E-01
RMM:   2    -0.118538756365E+04   -0.33352E-03   -0.59074E-03  1584   0.107E-01    0.266E-01
RMM:   3    -0.118538738920E+04    0.17445E-03   -0.22900E-04  1117   0.211E-02    0.222E-01
RMM:   4    -0.118538733869E+04    0.50511E-04   -0.11921E-03  1565   0.376E-02    0.716E-02
RMM:   5    -0.118538733455E+04    0.41375E-05   -0.63376E-05  1012   0.115E-02
   3 F= -.11928311E+04 E0= -.11928311E+04  d E =-.114294E-02  mag=    -0.0000
       N       E                     dE             d eps       ncg     rms          rms(c)
DAV:   1    -0.118538726181E+04    0.76875E-04   -0.46304E-01  1656   0.998E-01    0.429E-01
RMM:   2    -0.118538771928E+04   -0.45747E-03   -0.10262E-02  1584   0.134E-01    0.372E-01
RMM:   3    -0.118538739060E+04    0.32868E-03   -0.41252E-04  1192   0.274E-02    0.316E-01
RMM:   4    -0.118538724633E+04    0.14427E-03   -0.21658E-03  1584   0.523E-02    0.997E-02
RMM:   5    -0.118538728623E+04   -0.39897E-04   -0.13111E-04  1054   0.154E-02
   4 F= -.11928314E+04 E0= -.11928314E+04  d E =-.302758E-03  mag=    -0.0000
       N       E                     dE             d eps       ncg     rms          rms(c)
DAV:   1    -0.118538786375E+04   -0.61742E-03   -0.98955E-02  1728   0.462E-01    0.201E-01
RMM:   2    -0.118538792104E+04   -0.57293E-04   -0.20434E-03  1564   0.586E-02    0.171E-01
RMM:   3    -0.118538782623E+04    0.94818E-04   -0.88223E-05  1010   0.131E-02
   5 F= -.11928317E+04 E0= -.11928317E+04  d E =-.677836E-03  mag=     0.0000
