       N       E                     dE             d eps       ncg     rms          rms(c)
DAV:   1     0.457041892549E+04    0.45704E+04   -0.17774E+05  1920   0.937E+02
DAV:   2    -0.902789318304E+02   -0.46607E+04   -0.42342E+04  2432   0.209E+02
DAV:   3    -0.118640491364E+04   -0.10961E+04   -0.10889E+04  2016   0.109E+02
DAV:   4    -0.123145347185E+04   -0.45049E+02   -0.44782E+02  1920   0.293E+01
DAV:   5    -0.123263100706E+04   -0.11775E+01   -0.11745E+01  2304   0.443E+00    0.761E+01
RMM:   6    -0.122178367444E+04    0.10847E+02   -0.72123E+01  1634   0.799E+00    0.707E+01
RMM:   7    -0.120451060166E+04    0.17273E+02   -0.82562E+00  1581   0.391E+00    0.469E+01
RMM:   8    -0.119214840499E+04    0.12362E+02   -0.89429E+00  1548   0.393E+00    0.375E+01
RMM:   9    -0.116568697004E+04    0.26461E+02   -0.54001E+01  1833   0.900E+00    0.217E+01
RMM:  10    -0.116450714275E+04    0.11798E+01   -0.16371E+01  1558   0.539E+00    0.118E+01
RMM:  11    -0.116530888547E+04   -0.80174E+00   -0.32770E+00  1568   0.273E+00    0.848E+00
RMM:  12    -0.116476068922E+04    0.54820E+00   -0.16932E+00  1578   0.156E+00    0.533E+00
RMM:  13    -0.116473800079E+04    0.22688E-01   -0.17221E-01  1645   0.676E-01    0.331E+00
RMM:  14    -0.116460815009E+04    0.12985E+00   -0.24905E-01  1540   0.648E-01    0.203E+00
RMM:  15    -0.116459800808E+04    0.10142E-01   -0.17435E-01  1547   0.557E-01    0.402E-01
RMM:  16    -0.116459924354E+04   -0.12355E-02   -0.13189E-02  1551   0.194E-01    0.320E-01
RMM:  17    -0.116459917245E+04    0.71084E-04   -0.29191E-03  1645   0.855E-02    0.283E-01
RMM:  18    -0.116459949661E+04   -0.32416E-03   -0.21409E-03  1639   0.680E-02    0.187E-01
RMM:  19    -0.116460034163E+04   -0.84502E-03   -0.15216E-03  1577   0.565E-02    0.160E-01
RMM:  20    -0.116460042544E+04   -0.83809E-04   -0.29389E-04  1687   0.265E-02    0.111E-01
RMM:  21    -0.116460055758E+04   -0.13213E-03   -0.27528E-04  1575   0.212E-02    0.620E-02
RMM:  22    -0.116460062313E+04   -0.65554E-04   -0.22212E-04  1623   0.170E-02    0.402E-02
RMM:  23    -0.116460063774E+04   -0.14609E-04   -0.62829E-05  1570   0.110E-02    0.270E-02
RMM:  24    -0.116460064168E+04   -0.39436E-05   -0.36260E-05  1574   0.684E-03    0.172E-02
RMM:  25    -0.116460064673E+04   -0.50449E-05   -0.13463E-05  1473   0.423E-03    0.132E-02
RMM:  26    -0.116460064687E+04   -0.13996E-06   -0.41334E-06  1226   0.265E-03
   1 F= -.11646006E+04 E0= -.11646006E+04  d E =-.116460E+04  mag=     3.0004
       N       E                     dE             d eps       ncg     rms          rms(c)
DAV:   1    -0.116457133451E+04    0.29312E-01   -0.92607E+00  1760   0.442E+00    0.890E-01
RMM:   2    -0.116458750513E+04   -0.16171E-01   -0.18515E-01  1552   0.691E-01    0.108E+00
RMM:   3    -0.116459278249E+04   -0.52774E-02   -0.43140E-02  1751   0.277E-01    0.103E+00
RMM:   4    -0.116459392932E+04   -0.11468E-02   -0.85667E-03  1906   0.118E-01    0.114E+00
RMM:   5    -0.116459038449E+04    0.35448E-02   -0.47116E-03  1538   0.972E-02    0.696E-01
RMM:   6    -0.116458809762E+04    0.22869E-02   -0.14250E-02  1559   0.153E-01    0.442E-01
RMM:   7    -0.116458790582E+04    0.19180E-03   -0.15868E-03  1598   0.691E-02    0.282E-01
RMM:   8    -0.116458798784E+04   -0.82022E-04   -0.17211E-03  1620   0.553E-02    0.286E-01
RMM:   9    -0.116458804813E+04   -0.60284E-04   -0.49437E-04  1699   0.287E-02    0.208E-01
RMM:  10    -0.116458813740E+04   -0.89273E-04   -0.23684E-04  1704   0.190E-02    0.127E-01
RMM:  11    -0.116458822730E+04   -0.89900E-04   -0.12673E-04  1663   0.142E-02    0.559E-02
RMM:  12    -0.116458831208E+04   -0.84781E-04   -0.13421E-04  1644   0.137E-02    0.400E-02
RMM:  13    -0.116458831636E+04   -0.42758E-05   -0.26935E-05  1545   0.730E-03    0.400E-02
RMM:  14    -0.116458831375E+04    0.26015E-05   -0.24273E-05  1507   0.641E-03    0.181E-02
RMM:  15    -0.116458831949E+04   -0.57388E-05   -0.78300E-06  1392   0.369E-03    0.159E-02
RMM:  16    -0.116458832036E+04   -0.86819E-06   -0.35877E-06  1212   0.224E-03
   2 F= -.11645883E+04 E0= -.11645883E+04  d E =0.123265E-01  mag=     3.0000
       N       E                     dE             d eps       ncg     rms          rms(c)
DAV:   1    -0.116460395566E+04   -0.15636E-01   -0.34166E+00  1760   0.269E+00    0.528E-01
RMM:   2    -0.116460960989E+04   -0.56542E-02   -0.65141E-02  1557   0.418E-01    0.642E-01
RMM:   3    -0.116461133912E+04   -0.17292E-02   -0.14434E-02  1751   0.165E-01    0.622E-01
RMM:   4    -0.116461175754E+04   -0.41842E-03   -0.22981E-03  1851   0.668E-02    0.693E-01
RMM:   5    -0.116461026108E+04    0.14965E-02   -0.28654E-03  1536   0.731E-02    0.388E-01
RMM:   6    -0.116460975170E+04    0.50939E-03   -0.48551E-03  1598   0.844E-02    0.294E-01
RMM:   7    -0.116460962995E+04    0.12175E-03   -0.42370E-04  1554   0.372E-02    0.227E-01
RMM:   8    -0.116460962349E+04    0.64618E-05   -0.70055E-04  1602   0.347E-02    0.221E-01
RMM:   9    -0.116460966083E+04   -0.37338E-04   -0.13164E-04  1755   0.156E-02    0.186E-01
RMM:  10    -0.116460966731E+04   -0.64784E-05   -0.78008E-05  1650   0.109E-02    0.125E-01
RMM:  11    -0.116460967741E+04   -0.10108E-04   -0.75584E-05  1608   0.110E-02    0.503E-02
RMM:  12    -0.116460972617E+04   -0.48758E-04   -0.52986E-05  1612   0.909E-03    0.349E-02
RMM:  13    -0.116460972473E+04    0.14422E-05   -0.54306E-05  1662   0.100E-02    0.468E-02
RMM:  14    -0.116460974960E+04   -0.24867E-04   -0.14679E-05  1471   0.522E-03    0.346E-02
RMM:  15    -0.116460974860E+04    0.10011E-05   -0.27791E-06  1159   0.259E-03    0.280E-02
RMM:  16    -0.116460974627E+04    0.23227E-05   -0.40909E-06  1228   0.239E-03    0.158E-02
RMM:  17    -0.116460974756E+04   -0.12905E-05   -0.13477E-06  1070   0.161E-03    0.136E-02
RMM:  18    -0.116460974702E+04    0.54821E-06   -0.57411E-07  1011   0.111E-03
   3 F= -.11646097E+04 E0= -.11646097E+04  d E =-.910015E-02  mag=     3.0000
       N       E                     dE             d eps       ncg     rms          rms(c)
DAV:   1    -0.116460839857E+04    0.13490E-02   -0.14909E+00  1664   0.195E+00    0.362E-01
RMM:   2    -0.116461063163E+04   -0.22331E-02   -0.27409E-02  1551   0.289E-01    0.380E-01
RMM:   3    -0.116461122023E+04   -0.58860E-03   -0.65014E-03  1674   0.120E-01    0.332E-01
RMM:   4    -0.116461099392E+04    0.22631E-03   -0.13183E-03  1694   0.542E-02    0.313E-01
RMM:   5    -0.116461067773E+04    0.31619E-03   -0.10273E-03  1574   0.395E-02    0.249E-01
RMM:   6    -0.116461071400E+04   -0.36279E-04   -0.24499E-03  1644   0.579E-02    0.184E-01
RMM:   7    -0.116461050995E+04    0.20406E-03   -0.31865E-04  1583   0.280E-02    0.138E-01
RMM:   8    -0.116461036966E+04    0.14029E-03   -0.52824E-04  1660   0.248E-02    0.792E-02
RMM:   9    -0.116461035510E+04    0.14568E-04   -0.10394E-04  1685   0.139E-02    0.636E-02
RMM:  10    -0.116461035710E+04   -0.19992E-05   -0.52553E-05  1624   0.904E-03    0.410E-02
RMM:  11    -0.116461036361E+04   -0.65137E-05   -0.79064E-06  1475   0.462E-03    0.332E-02
RMM:  12    -0.116461035987E+04    0.37348E-05   -0.93748E-06  1502   0.390E-03    0.217E-02
RMM:  13    -0.116461035472E+04    0.51515E-05   -0.16143E-05  1558   0.463E-03    0.116E-02
RMM:  14    -0.116461035652E+04   -0.18016E-05   -0.24692E-06  1119   0.243E-03    0.890E-03
RMM:  15    -0.116461035682E+04   -0.29667E-06   -0.50688E-07  1012   0.115E-03
   4 F= -.11646104E+04 E0= -.11646104E+04  d E =-.609804E-03  mag=     3.0000
       N       E                     dE             d eps       ncg     rms          rms(c)
DAV:   1    -0.116461197689E+04   -0.16204E-02   -0.32631E-01  1664   0.911E-01    0.171E-01
RMM:   2    -0.116461245982E+04   -0.48293E-03   -0.59678E-03  1552   0.135E-01    0.176E-01
RMM:   3    -0.116461258851E+04   -0.12869E-03   -0.14435E-03  1663   0.562E-02    0.152E-01
RMM:   4    -0.116461254050E+04    0.48007E-04   -0.24078E-04  1708   0.244E-02    0.145E-01
RMM:   5    -0.116461246283E+04    0.77670E-04   -0.25227E-04  1570   0.194E-02    0.111E-01
RMM:   6    -0.116461247079E+04   -0.79520E-05   -0.48749E-04  1650   0.260E-02    0.829E-02
RMM:   7    -0.116461243784E+04    0.32947E-04   -0.59050E-05  1590   0.121E-02    0.638E-02
RMM:   8    -0.116461241185E+04    0.25991E-04   -0.10418E-04  1645   0.110E-02    0.357E-02
RMM:   9    -0.116461240865E+04    0.32020E-05   -0.23352E-05  1613   0.644E-03    0.273E-02
RMM:  10    -0.116461241032E+04   -0.16742E-05   -0.10518E-05  1545   0.412E-03    0.163E-02
RMM:  11    -0.116461241154E+04   -0.12191E-05   -0.19082E-06  1084   0.216E-03    0.135E-02
RMM:  12    -0.116461241075E+04    0.78425E-06   -0.18144E-06  1049   0.178E-03
   5 F= -.11646124E+04 E0= -.11646124E+04  d E =-.266374E-02  mag=     3.0000
       N       E                     dE             d eps       ncg     rms          rms(c)
DAV:   1    -0.116461261011E+04   -0.19857E-03   -0.56426E-01  1664   0.129E+00    0.196E-01
RMM:   2    -0.116461338242E+04   -0.77231E-03   -0.99006E-03  1576   0.182E-01    0.185E-01
RMM:   3    -0.116461349918E+04   -0.11676E-03   -0.22699E-03  1651   0.758E-02    0.162E-01
RMM:   4    -0.116461333274E+04    0.16644E-03   -0.42469E-04  1678   0.339E-02    0.136E-01
RMM:   5    -0.116461315530E+04    0.17745E-03   -0.58853E-04  1564   0.303E-02    0.772E-02
RMM:   6    -0.116461315172E+04    0.35796E-05   -0.44068E-04  1560   0.271E-02    0.447E-02
RMM:   7    -0.116461312702E+04    0.24695E-04   -0.45219E-05  1607   0.116E-02    0.354E-02
RMM:   8    -0.116461310986E+04    0.17165E-04   -0.88112E-05  1595   0.103E-02    0.208E-02
RMM:   9    -0.116461311033E+04   -0.47508E-06   -0.12141E-05  1607   0.577E-03    0.142E-02
RMM:  10    -0.116461311098E+04   -0.65039E-06   -0.12743E-05  1572   0.441E-03    0.828E-03
RMM:  11    -0.116461311071E+04    0.27236E-06   -0.19007E-06  1052   0.222E-03
   6 F= -.11646131E+04 E0= -.11646131E+04  d E =-.699957E-03  mag=     3.0000
       N       E                     dE             d eps       ncg     rms          rms(c)
DAV:   1    -0.116461357053E+04   -0.45955E-03   -0.90438E-02  1664   0.517E-01    0.793E-02
RMM:   2    -0.116461369384E+04   -0.12331E-03   -0.16198E-03  1576   0.739E-02    0.743E-02
RMM:   3    -0.116461371117E+04   -0.17328E-04   -0.36541E-04  1649   0.306E-02    0.644E-02
RMM:   4    -0.116461368501E+04    0.26156E-04   -0.69010E-05  1666   0.137E-02    0.536E-02
RMM:   5    -0.116461366069E+04    0.24317E-04   -0.94146E-05  1566   0.121E-02    0.299E-02
RMM:   6    -0.116461366242E+04   -0.17295E-05   -0.67157E-05  1559   0.106E-02    0.172E-02
RMM:   7    -0.116461365845E+04    0.39682E-05   -0.70045E-06  1529   0.455E-03    0.132E-02
RMM:   8    -0.116461365639E+04    0.20603E-05   -0.13666E-05  1518   0.403E-03    0.774E-03
RMM:   9    -0.116461365659E+04   -0.19129E-06   -0.16510E-06  1051   0.223E-03
   7 F= -.11646137E+04 E0= -.11646137E+04  d E =-.124583E-02  mag=     3.0000
