       N       E                     dE             d eps       ncg     rms          rms(c)
DAV:   1     0.473669989972E+04    0.47367E+04   -0.17304E+05  1944   0.906E+02
DAV:   2     0.494332055619E+00   -0.47362E+04   -0.42928E+04  2556   0.206E+02
DAV:   3    -0.118192987776E+04   -0.11824E+04   -0.11750E+04  2268   0.112E+02
DAV:   4    -0.123627331030E+04   -0.54343E+02   -0.54021E+02  2160   0.320E+01
DAV:   5    -0.123849912824E+04   -0.22258E+01   -0.22197E+01  2340   0.614E+00    0.690E+01
RMM:   6    -0.121684131393E+04    0.21658E+02   -0.12158E+01  2128   0.624E+00    0.530E+01
RMM:   7    -0.119282746420E+04    0.24014E+02   -0.25300E+01  2079   0.682E+00    0.392E+01
RMM:   8    -0.117105693293E+04    0.21771E+02   -0.29415E+01  2049   0.832E+00    0.349E+01
RMM:   9    -0.116871485834E+04    0.23421E+01   -0.64984E+00  2054   0.920E+00    0.235E+01
RMM:  10    -0.116669509396E+04    0.20198E+01   -0.82235E+00  2091   0.392E+00    0.156E+01
RMM:  11    -0.116785732668E+04   -0.11622E+01   -0.87295E+00  2092   0.433E+00    0.928E+00
RMM:  12    -0.116764296503E+04    0.21436E+00   -0.62802E-01  2125   0.196E+00    0.665E+00
RMM:  13    -0.116681243577E+04    0.83053E+00   -0.22069E+00  2058   0.224E+00    0.349E+00
RMM:  14    -0.116688914163E+04   -0.76706E-01   -0.49569E-01  2032   0.241E+00    0.246E+00
RMM:  15    -0.116690710903E+04   -0.17967E-01   -0.21721E-01  2110   0.695E-01    0.871E-01
RMM:  16    -0.116690861943E+04   -0.15104E-02   -0.35323E-02  2088   0.259E-01    0.657E-01
RMM:  17    -0.116690884621E+04   -0.22677E-03   -0.78739E-03  1999   0.183E-01    0.346E-01
RMM:  18    -0.116690924771E+04   -0.40150E-03   -0.31344E-03  1661   0.104E-01    0.250E-01
RMM:  19    -0.116690950111E+04   -0.25340E-03   -0.70735E-04  1277   0.138E-01    0.155E-01
RMM:  20    -0.116690950520E+04   -0.40841E-05   -0.44232E-04  1291   0.154E-01
   1 F= -.11741415E+04 E0= -.11741414E+04  d E =-.117414E+04  mag=     2.9959
       N       E                     dE             d eps       ncg     rms          rms(c)
DAV:   1    -0.116690602582E+04    0.34753E-02   -0.58522E-01  2088   0.147E+00    0.372E-01
RMM:   2    -0.116690766261E+04   -0.16368E-02   -0.19677E-02  2167   0.203E-01    0.396E-01
RMM:   3    -0.116690800973E+04   -0.34712E-03   -0.37696E-03  1248   0.405E-01    0.356E-01
RMM:   4    -0.116690780483E+04    0.20490E-03   -0.24031E-04  1195   0.122E-01    0.344E-01
RMM:   5    -0.116690744849E+04    0.35634E-03   -0.24042E-04  1233   0.149E-01    0.275E-01
RMM:   6    -0.116690718800E+04    0.26049E-03   -0.25942E-03  1670   0.194E-01    0.214E-01
RMM:   7    -0.116690726837E+04   -0.80373E-04   -0.90943E-04  1342   0.173E-01
   2 F= -.11741394E+04 E0= -.11741393E+04  d E =0.210226E-02  mag=     2.9986
       N       E                     dE             d eps       ncg     rms          rms(c)
DAV:   1    -0.116691004226E+04   -0.28543E-02   -0.28759E-01  2268   0.102E+00    0.242E-01
RMM:   2    -0.116691063022E+04   -0.58796E-03   -0.83494E-03  2057   0.137E-01    0.269E-01
RMM:   3    -0.116691073280E+04   -0.10258E-03   -0.18772E-03  1277   0.349E-01    0.210E-01
RMM:   4    -0.116691040020E+04    0.33260E-03   -0.10553E-04  1094   0.785E-02    0.168E-01
RMM:   5    -0.116691021045E+04    0.18975E-03   -0.10824E-04  1079   0.111E-01    0.111E-01
RMM:   6    -0.116691008531E+04    0.12514E-03   -0.36163E-04  1158   0.161E-01    0.890E-02
RMM:   7    -0.116691011736E+04   -0.32049E-04   -0.51649E-04  1301   0.203E-01
   3 F= -.11741421E+04 E0= -.11741421E+04  d E =-.652795E-03  mag=     2.9986
