       N       E                     dE             d eps       ncg     rms          rms(c)
DAV:   1     0.519929951091E+04    0.51993E+04   -0.16996E+05  1800   0.917E+02
DAV:   2     0.535983085223E+02   -0.51457E+04   -0.46778E+04  2484   0.218E+02
DAV:   3    -0.117547917366E+04   -0.12291E+04   -0.12215E+04  2160   0.117E+02
DAV:   4    -0.123220227336E+04   -0.56723E+02   -0.56307E+02  2052   0.344E+01
DAV:   5    -0.123460042405E+04   -0.23982E+01   -0.23906E+01  2484   0.672E+00    0.610E+01
RMM:   6    -0.122147970695E+04    0.13121E+02   -0.66739E+00  1829   0.349E+00    0.495E+01
RMM:   7    -0.118169761929E+04    0.39782E+02   -0.55784E+01  1938   0.997E+00    0.306E+01
RMM:   8    -0.117700264519E+04    0.46950E+01   -0.69427E+00  1955   0.741E+00    0.248E+01
RMM:   9    -0.117281397246E+04    0.41887E+01   -0.50817E+01  1954   0.928E+00    0.130E+01
RMM:  10    -0.117205801834E+04    0.75595E+00   -0.31883E+00  1887   0.639E+00    0.108E+01
RMM:  11    -0.117157825325E+04    0.47977E+00   -0.64204E+00  2010   0.397E+00    0.855E+00
RMM:  12    -0.117027306882E+04    0.13052E+01   -0.47262E-01  2068   0.127E+00    0.660E+00
RMM:  13    -0.116978202220E+04    0.49105E+00   -0.95825E-01  2074   0.101E+00    0.387E+00
RMM:  14    -0.116966406488E+04    0.11796E+00   -0.69503E-02  2077   0.351E-01    0.317E+00
RMM:  15    -0.116953790288E+04    0.12616E+00   -0.58448E-01  2016   0.722E-01    0.160E+00
RMM:  16    -0.116951509987E+04    0.22803E-01   -0.74382E-02  2011   0.445E-01    0.978E-01
RMM:  17    -0.116950523232E+04    0.98675E-02   -0.68919E-03  1900   0.166E-01    0.598E-01
RMM:  18    -0.116950160802E+04    0.36243E-02   -0.70831E-03  2026   0.121E-01    0.281E-01
RMM:  19    -0.116950217915E+04   -0.57113E-03   -0.24206E-03  1930   0.646E-02    0.206E-01
RMM:  20    -0.116950231832E+04   -0.13916E-03   -0.81040E-04  1572   0.538E-02    0.149E-01
RMM:  21    -0.116950261286E+04   -0.29454E-03   -0.32804E-04  1162   0.404E-02    0.168E-01
RMM:  22    -0.116950228949E+04    0.32337E-03   -0.44887E-04  1300   0.359E-02    0.215E-01
RMM:  23    -0.116950190385E+04    0.38563E-03   -0.80815E-04  1259   0.467E-02    0.257E-01
RMM:  24    -0.116950196838E+04   -0.64525E-04   -0.37531E-04  1176   0.351E-02
   1 F= -.11771534E+04 E0= -.11771534E+04  d E =-.117715E+04  mag=     0.0034
       N       E                     dE             d eps       ncg     rms          rms(c)
DAV:   1    -0.116949953767E+04    0.23662E-02   -0.57035E-01  2016   0.121E+00    0.293E-01
RMM:   2    -0.116950098559E+04   -0.14479E-02   -0.21153E-02  2026   0.212E-01    0.248E-01
RMM:   3    -0.116950057091E+04    0.41467E-03   -0.19293E-03  1662   0.845E-02    0.209E-01
RMM:   4    -0.116949987270E+04    0.69821E-03   -0.10222E-03  1656   0.764E-02    0.152E-01
RMM:   5    -0.116949972484E+04    0.14786E-03   -0.25852E-03  1917   0.741E-02    0.984E-02
RMM:   6    -0.116949977889E+04   -0.54050E-04   -0.19280E-04  1144   0.517E-02
   2 F= -.11771517E+04 E0= -.11771517E+04  d E =0.166684E-02  mag=    -0.0010
       N       E                     dE             d eps       ncg     rms          rms(c)
DAV:   1    -0.116950309574E+04   -0.33709E-02   -0.24480E-01  1980   0.789E-01    0.185E-01
RMM:   2    -0.116950342893E+04   -0.33319E-03   -0.64965E-03  1858   0.129E-01    0.161E-01
RMM:   3    -0.116950331490E+04    0.11402E-03   -0.72854E-04  1348   0.883E-02    0.149E-01
RMM:   4    -0.116950339627E+04   -0.81363E-04   -0.57242E-04  1289   0.611E-02
   3 F= -.11771550E+04 E0= -.11771550E+04  d E =-.160956E-02  mag=     0.0000
       N       E                     dE             d eps       ncg     rms          rms(c)
DAV:   1    -0.116950181049E+04    0.15044E-02   -0.43674E-01  1800   0.106E+00    0.295E-01
RMM:   2    -0.116950250862E+04   -0.69813E-03   -0.11933E-02  1850   0.176E-01    0.277E-01
RMM:   3    -0.116950237213E+04    0.13649E-03   -0.11284E-03  1507   0.114E-01    0.270E-01
RMM:   4    -0.116950238093E+04   -0.87985E-05   -0.82035E-04  1431   0.792E-02
   4 F= -.11771535E+04 E0= -.11771535E+04  d E =0.153881E-02  mag=     0.0001
       N       E                     dE             d eps       ncg     rms          rms(c)
DAV:   1    -0.116950449311E+04   -0.21210E-02   -0.22119E-01  1908   0.747E-01    0.246E-01
RMM:   2    -0.116950590475E+04   -0.14116E-02   -0.64143E-03  1868   0.126E-01    0.279E-01
RMM:   3    -0.116950476414E+04    0.11406E-02   -0.52925E-04  1273   0.801E-02    0.266E-01
RMM:   4    -0.116950019212E+04    0.45720E-02   -0.46910E-03  1832   0.907E-02    0.115E-01
RMM:   5    -0.116950215439E+04   -0.19623E-02   -0.10211E-03  1337   0.547E-02    0.701E-02
RMM:   6    -0.116950272502E+04   -0.57063E-03   -0.21037E-04  1104   0.369E-02    0.519E-02
RMM:   7    -0.116950282117E+04   -0.96148E-04   -0.26508E-04  1210   0.323E-02
   5 F= -.11771543E+04 E0= -.11771543E+04  d E =0.739023E-03  mag=     0.0000
